 Entering Gaussian System, Link 0=g09
 Input=TSCDCL.com
 Output=TSCDCL.log
 Initial command:
 /home/student/g09/l1.exe /home/student/Adesh/Gau-24605.inp -scrdir=/home/student/Adesh/
 Entering Link 1 = /home/student/g09/l1.exe PID=     24608.
  
 Copyright (c) 1988,1990,1992,1993,1995,1998,2003,2009,2011,
            Gaussian, Inc.  All Rights Reserved.
  
 This is part of the Gaussian(R) 09 program.  It is based on
 the Gaussian(R) 03 system (copyright 2003, Gaussian, Inc.),
 the Gaussian(R) 98 system (copyright 1998, Gaussian, Inc.),
 the Gaussian(R) 94 system (copyright 1995, Gaussian, Inc.),
 the Gaussian 92(TM) system (copyright 1992, Gaussian, Inc.),
 the Gaussian 90(TM) system (copyright 1990, Gaussian, Inc.),
 the Gaussian 88(TM) system (copyright 1988, Gaussian, Inc.),
 the Gaussian 86(TM) system (copyright 1986, Carnegie Mellon
 University), and the Gaussian 82(TM) system (copyright 1983,
 Carnegie Mellon University). Gaussian is a federally registered
 trademark of Gaussian, Inc.
  
 This software contains proprietary and confidential information,
 including trade secrets, belonging to Gaussian, Inc.
  
 This software is provided under written license and may be
 used, copied, transmitted, or stored only in accord with that
 written license.
  
 The following legend is applicable only to US Government
 contracts under FAR:
  
                    RESTRICTED RIGHTS LEGEND
  
 Use, reproduction and disclosure by the US Government is
 subject to restrictions as set forth in subparagraphs (a)
 and (c) of the Commercial Computer Software - Restricted
 Rights clause in FAR 52.227-19.
  
 Gaussian, Inc.
 340 Quinnipiac St., Bldg. 40, Wallingford CT 06492
  
  
 ---------------------------------------------------------------
 Warning -- This program may not be used in any manner that
 competes with the business of Gaussian, Inc. or will provide
 assistance to any competitor of Gaussian, Inc.  The licensee
 of this program is prohibited from giving any competitor of
 Gaussian, Inc. access to this program.  By using this program,
 the user acknowledges that Gaussian, Inc. is engaged in the
 business of creating and licensing software in the field of
 computational chemistry and represents and warrants to the
 licensee that it is not a competitor of Gaussian, Inc. and that
 it will not use this program in any manner prohibited above.
 ---------------------------------------------------------------
  

 Cite this work as:
 Gaussian 09, Revision C.01,
 M. J. Frisch, G. W. Trucks, H. B. Schlegel, G. E. Scuseria, 
 M. A. Robb, J. R. Cheeseman, G. Scalmani, V. Barone, B. Mennucci, 
 G. A. Petersson, H. Nakatsuji, M. Caricato, X. Li, H. P. Hratchian, 
 A. F. Izmaylov, J. Bloino, G. Zheng, J. L. Sonnenberg, M. Hada, 
 M. Ehara, K. Toyota, R. Fukuda, J. Hasegawa, M. Ishida, T. Nakajima, 
 Y. Honda, O. Kitao, H. Nakai, T. Vreven, J. A. Montgomery, Jr., 
 J. E. Peralta, F. Ogliaro, M. Bearpark, J. J. Heyd, E. Brothers, 
 K. N. Kudin, V. N. Staroverov, T. Keith, R. Kobayashi, J. Normand, 
 K. Raghavachari, A. Rendell, J. C. Burant, S. S. Iyengar, J. Tomasi, 
 M. Cossi, N. Rega, J. M. Millam, M. Klene, J. E. Knox, J. B. Cross, 
 V. Bakken, C. Adamo, J. Jaramillo, R. Gomperts, R. E. Stratmann, 
 O. Yazyev, A. J. Austin, R. Cammi, C. Pomelli, J. W. Ochterski, 
 R. L. Martin, K. Morokuma, V. G. Zakrzewski, G. A. Voth, 
 P. Salvador, J. J. Dannenberg, S. Dapprich, A. D. Daniels, 
 O. Farkas, J. B. Foresman, J. V. Ortiz, J. Cioslowski, 
 and D. J. Fox, Gaussian, Inc., Wallingford CT, 2010.
 
 ******************************************
 Gaussian 09:  EM64L-G09RevC.01 23-Sep-2011
                22-Feb-2021 
 ******************************************
 %chk=TSCDCL.chk
 -----------------------------------------------------
 # b3lyp/6-31g* geom=connectivity opt=(ts,calcfc) freq
 -----------------------------------------------------
 1/5=1,10=4,14=-1,18=20,26=3,38=1,57=2/1,3;
 2/9=110,12=2,17=6,18=5,40=1/2;
 3/5=1,6=6,7=1,11=2,16=1,25=1,30=1,71=2,74=-5/1,2,3;
 4//1;
 5/5=2,38=5/2;
 8/6=4,10=90,11=11/1;
 11/6=1,8=1,9=11,15=111,16=1/1,2,10;
 10/6=1,7=6,13=1/2;
 6/7=2,8=2,9=2,10=2,28=1/1;
 7/10=1,18=20,25=1/1,2,3,16;
 1/5=1,10=4,14=-1,18=20/3(2);
 2/9=110/2;
 99//99;
 2/9=110/2;
 3/5=1,6=6,7=1,11=2,16=1,25=1,30=1,71=1,74=-5/1,2,3;
 4/5=5,16=3/1;
 5/5=2,38=5/2;
 7//1,2,3,16;
 1/5=1,14=-1,18=20/3(-5);
 2/9=110/2;
 6/7=2,8=2,9=2,10=2,19=2,28=1/1;
 99/9=1/99;
 -------------------
 Title Card Required
 -------------------
 Charge =  0 Multiplicity = 2
 Symbolic Z-Matrix:
 C                     0.26092   2.00396  -0.1831 
 H(iso=2)              0.53662   0.71549   0.15371 
 H                     0.74052   2.2408   -1.10982 
 Cl                    0.8552    3.07969   1.07675 
 Cl                   -1.47901   2.20609  -0.35452 
 Cl                    0.84069  -0.70561   0.52519 
 

 GradGradGradGradGradGradGradGradGradGradGradGradGradGradGradGradGradGrad
 Berny optimization.
 Initialization pass.
                           ----------------------------
                           !    Initial Parameters    !
                           ! (Angstroms and Degrees)  !
 --------------------------                            --------------------------
 ! Name  Definition              Value          Derivative Info.                !
 --------------------------------------------------------------------------------
 ! R1    R(1,2)                  1.36           calculate D2E/DX2 analytically  !
 ! R2    R(1,3)                  1.07           calculate D2E/DX2 analytically  !
 ! R3    R(1,4)                  1.76           calculate D2E/DX2 analytically  !
 ! R4    R(1,5)                  1.76           calculate D2E/DX2 analytically  !
 ! R5    R(2,6)                  1.5            calculate D2E/DX2 analytically  !
 ! A1    A(2,1,3)              109.4712         calculate D2E/DX2 analytically  !
 ! A2    A(2,1,4)              109.4712         calculate D2E/DX2 analytically  !
 ! A3    A(2,1,5)              109.4712         calculate D2E/DX2 analytically  !
 ! A4    A(3,1,4)              109.4713         calculate D2E/DX2 analytically  !
 ! A5    A(3,1,5)              109.4712         calculate D2E/DX2 analytically  !
 ! A6    A(4,1,5)              109.4712         calculate D2E/DX2 analytically  !
 ! A7    L(1,2,6,4,-1)         180.0            calculate D2E/DX2 analytically  !
 ! A8    L(1,2,6,4,-2)         180.0            calculate D2E/DX2 analytically  !
 ! D1    D(2,1,4,3)            120.0            calculate D2E/DX2 analytically  !
 ! D2    D(2,1,5,3)           -120.0            calculate D2E/DX2 analytically  !
 ! D3    D(2,1,5,4)            120.0            calculate D2E/DX2 analytically  !
 ! D4    D(3,1,5,4)           -120.0            calculate D2E/DX2 analytically  !
 --------------------------------------------------------------------------------
 Trust Radius=3.00D-01 FncErr=1.00D-07 GrdErr=1.00D-06
 Number of steps in this run=     27 maximum allowed number of steps=    100.
 Search for a saddle point of order  1.
 GradGradGradGradGradGradGradGradGradGradGradGradGradGradGradGradGradGrad

                          Input orientation:                          
 ---------------------------------------------------------------------
 Center     Atomic      Atomic             Coordinates (Angstroms)
 Number     Number       Type             X           Y           Z
 ---------------------------------------------------------------------
      1          6           0        0.260921    2.003962   -0.183105
      2          1           0        0.536617    0.715495    0.153708
      3          1           0        0.740516    2.240802   -1.109817
      4         17           0        0.855202    3.079691    1.076751
      5         17           0       -1.479010    2.206093   -0.354524
      6         17           0        0.840694   -0.705610    0.525192
 ---------------------------------------------------------------------
                    Distance matrix (angstroms):
                    1          2          3          4          5
     1  C    0.000000
     2  H    1.360000   0.000000
     3  H    1.070000   1.991138   0.000000
     4  Cl   1.760000   2.557916   2.344775   0.000000
     5  Cl   1.760000   2.557916   2.344774   2.874068   0.000000
     6  Cl   2.860000   1.500000   3.371147   3.825301   3.825302
                    6
     6  Cl   0.000000
 Stoichiometry    CH2Cl3(2)
 Framework group  C1[X(CH2Cl3)]
 Deg. of freedom    12
 Full point group                 C1      NOp   1
 Largest Abelian subgroup         C1      NOp   1
 Largest concise Abelian subgroup C1      NOp   1
                         Standard orientation:                         
 ---------------------------------------------------------------------
 Center     Atomic      Atomic             Coordinates (Angstroms)
 Number     Number       Type             X           Y           Z
 ---------------------------------------------------------------------
      1          6           0        0.389428    0.000000    0.560256
      2          1           0       -0.937348    0.000000    0.261484
      3          1           0        0.515761    0.000000    1.622772
      4         17           0        1.144029    1.437034   -0.120266
      5         17           0        1.144030   -1.437034   -0.120266
      6         17           0       -2.400705   -0.000001   -0.068045
 ---------------------------------------------------------------------
 Rotational constants (GHZ):      3.3221421      1.6589965      1.1450573
 Standard basis: 6-31G(d) (6D, 7F)
 There are    76 symmetry adapted basis functions of A   symmetry.
 Integral buffers will be    131072 words long.
 Raffenetti 2 integral format.
 Two-electron integral symmetry is turned on.
    76 basis functions,   192 primitive gaussians,    76 cartesian basis functions
    30 alpha electrons       29 beta electrons
       nuclear repulsion energy       242.3192155280 Hartrees.
 NAtoms=    6 NActive=    6 NUniq=    6 SFac= 1.00D+00 NAtFMM=   60 NAOKFM=F Big=F
 One-electron integrals computed using PRISM.
 NBasis=    76 RedAO= T  NBF=    76
 NBsUse=    76 1.00D-06 NBFU=    76
 Harris functional with IExCor=  402 diagonalized for initial guess.
 ExpMin= 1.43D-01 ExpMax= 2.52D+04 ExpMxC= 3.78D+03 IAcc=1 IRadAn=         1 AccDes= 0.00D+00
 HarFok:  IExCor=  402 AccDes= 0.00D+00 IRadAn=         1 IDoV= 1
 ScaDFX=  1.000000  1.000000  1.000000  1.000000
 FoFCou: FMM=F IPFlag=           0 FMFlag=      100000 FMFlg1=           0
         NFxFlg=           0 DoJE=T BraDBF=F KetDBF=T FulRan=T
         Omega=  0.000000  0.000000  1.000000  0.000000  0.000000 ICntrl=     500 IOpCl=  0
         NMat0=    1 NMatS0=    1 NMatT0=    0 NMatD0=    1 NMtDS0=    0 NMtDT0=    0
         I1Cent=           4 NGrid=           0.
 Petite list used in FoFCou.
 Initial guess orbital symmetries:
 Alpha Orbitals:
       Occupied  (A) (A) (A) (A) (A) (A) (A) (A) (A) (A) (A) (A)
                 (A) (A) (A) (A) (A) (A) (A) (A) (A) (A) (A) (A)
                 (A) (A) (A) (A) (A) (A)
       Virtual   (A) (A) (A) (A) (A) (A) (A) (A) (A) (A) (A) (A)
                 (A) (A) (A) (A) (A) (A) (A) (A) (A) (A) (A) (A)
                 (A) (A) (A) (A) (A) (A) (A) (A) (A) (A) (A) (A)
                 (A) (A) (A) (A) (A) (A) (A) (A) (A) (A)
 Beta  Orbitals:
       Occupied  (A) (A) (A) (A) (A) (A) (A) (A) (A) (A) (A) (A)
                 (A) (A) (A) (A) (A) (A) (A) (A) (A) (A) (A) (A)
                 (A) (A) (A) (A) (A)
       Virtual   (A) (A) (A) (A) (A) (A) (A) (A) (A) (A) (A) (A)
                 (A) (A) (A) (A) (A) (A) (A) (A) (A) (A) (A) (A)
                 (A) (A) (A) (A) (A) (A) (A) (A) (A) (A) (A) (A)
                 (A) (A) (A) (A) (A) (A) (A) (A) (A) (A) (A)
 The electronic state of the initial guess is 2-A.
 Initial guess <Sx>= 0.0000 <Sy>= 0.0000 <Sz>= 0.5000 <S**2>= 0.7500 S= 0.5000
 Requested convergence on RMS density matrix=1.00D-08 within 128 cycles.
 Requested convergence on MAX density matrix=1.00D-06.
 Requested convergence on             energy=1.00D-06.
 No special actions if energy rises.
 Keep R1 and R2 ints in memory in canonical form, NReq=9546585.
 Integral accuracy reduced to 1.0D-05 until final iterations.
 Initial convergence to 1.0D-05 achieved.  Increase integral accuracy.
 SCF Done:  E(UB3LYP) =  -1419.82317914     A.U. after   17 cycles
             Convg  =    0.9493D-08             -V/T =  2.0032
 <Sx>= 0.0000 <Sy>= 0.0000 <Sz>= 0.5000 <S**2>= 0.7553 S= 0.5026
 <L.S>= 0.000000000000E+00
 Annihilation of the first spin contaminant:
 S**2 before annihilation     0.7553,   after     0.7500
 Range of M.O.s used for correlation:     1    76
 NBasis=    76 NAE=    30 NBE=    29 NFC=     0 NFV=     0
 NROrb=     76 NOA=    30 NOB=    29 NVA=    46 NVB=    47
 Symmetrizing basis deriv contribution to polar:
 IMax=3 JMax=2 DiffMx= 0.00D+00
 G2DrvN: will do     7 centers at a time, making    1 passes doing MaxLOS=2.
 Calling FoFCou, ICntrl=  3107 FMM=F I1Cent=   0 AccDes= 0.00D+00.
 FoFDir/FoFCou used for L=0 through L=2.
 End of G2Drv Frequency-dependent properties file   721 does not exist.
 End of G2Drv Frequency-dependent properties file   722 does not exist.
          IDoAtm=111111
          Differentiating once with respect to nuclear coordinates.
          Keep R1 and R2 ints in memory in canonical form, NReq=9386482.
          There are    21 degrees of freedom in the 1st order CPHF.  IDoFFX=5.
     15 vectors produced by pass  0 Test12= 1.31D-10 4.76D-07 XBig12= 2.93D-01 2.98D-01.
 AX will form    15 AO Fock derivatives at one time.
     15 vectors produced by pass  1 Test12= 1.31D-10 4.76D-07 XBig12= 3.96D-02 8.30D-02.
     15 vectors produced by pass  2 Test12= 1.31D-10 4.76D-07 XBig12= 3.04D-03 1.22D-02.
     15 vectors produced by pass  3 Test12= 1.31D-10 4.76D-07 XBig12= 9.14D-05 2.67D-03.
     15 vectors produced by pass  4 Test12= 1.31D-10 4.76D-07 XBig12= 2.50D-06 4.14D-04.
     12 vectors produced by pass  5 Test12= 1.31D-10 4.76D-07 XBig12= 1.42D-08 1.99D-05.
      3 vectors produced by pass  6 Test12= 1.31D-10 4.76D-07 XBig12= 1.09D-10 2.43D-06.
 Inverted reduced A of dimension    90 with in-core refinement.
 End of Minotr Frequency-dependent properties file   721 does not exist.
 End of Minotr Frequency-dependent properties file   722 does not exist.

 **********************************************************************

            Population analysis using the SCF density.

 **********************************************************************

 Orbital symmetries:
 Alpha Orbitals:
       Occupied  (A) (A) (A) (A) (A) (A) (A) (A) (A) (A) (A) (A)
                 (A) (A) (A) (A) (A) (A) (A) (A) (A) (A) (A) (A)
                 (A) (A) (A) (A) (A) (A)
       Virtual   (A) (A) (A) (A) (A) (A) (A) (A) (A) (A) (A) (A)
                 (A) (A) (A) (A) (A) (A) (A) (A) (A) (A) (A) (A)
                 (A) (A) (A) (A) (A) (A) (A) (A) (A) (A) (A) (A)
                 (A) (A) (A) (A) (A) (A) (A) (A) (A) (A)
 Beta  Orbitals:
       Occupied  (A) (A) (A) (A) (A) (A) (A) (A) (A) (A) (A) (A)
                 (A) (A) (A) (A) (A) (A) (A) (A) (A) (A) (A) (A)
                 (A) (A) (A) (A) (A)
       Virtual   (A) (A) (A) (A) (A) (A) (A) (A) (A) (A) (A) (A)
                 (A) (A) (A) (A) (A) (A) (A) (A) (A) (A) (A) (A)
                 (A) (A) (A) (A) (A) (A) (A) (A) (A) (A) (A) (A)
                 (A) (A) (A) (A) (A) (A) (A) (A) (A) (A) (A)
 The electronic state is 2-A.
 Alpha  occ. eigenvalues -- -101.59538-101.59538-101.53988 -10.35589  -9.51191
 Alpha  occ. eigenvalues --   -9.51190  -9.45631  -7.27604  -7.27602  -7.26706
 Alpha  occ. eigenvalues --   -7.26706  -7.26513  -7.26513  -7.22408  -7.20970
 Alpha  occ. eigenvalues --   -7.20968  -0.94978  -0.86572  -0.82222  -0.69340
 Alpha  occ. eigenvalues --   -0.53576  -0.50864  -0.48512  -0.39496  -0.36405
 Alpha  occ. eigenvalues --   -0.36052  -0.34035  -0.31730  -0.31637  -0.29278
 Alpha virt. eigenvalues --   -0.03168   0.00200   0.08503   0.12561   0.30260
 Alpha virt. eigenvalues --    0.34675   0.35509   0.37295   0.38728   0.40897
 Alpha virt. eigenvalues --    0.41183   0.42377   0.43014   0.47174   0.47401
 Alpha virt. eigenvalues --    0.50719   0.51456   0.56350   0.59488   0.75138
 Alpha virt. eigenvalues --    0.77951   0.79784   0.82551   0.82933   0.83137
 Alpha virt. eigenvalues --    0.84677   0.85238   0.88069   0.88077   0.88876
 Alpha virt. eigenvalues --    0.93399   0.94650   1.00797   1.02279   1.09864
 Alpha virt. eigenvalues --    1.12390   1.41200   1.65724   1.69964   1.94053
 Alpha virt. eigenvalues --    2.10175   2.13168   4.00633   4.21786   4.23086
 Alpha virt. eigenvalues --    4.28249
  Beta  occ. eigenvalues -- -101.59462-101.59462-101.53660 -10.34735  -9.51121
  Beta  occ. eigenvalues --   -9.51120  -9.45323  -7.27540  -7.27537  -7.26496
  Beta  occ. eigenvalues --   -7.26496  -7.26466  -7.26466  -7.21372  -7.20782
  Beta  occ. eigenvalues --   -7.20780  -0.94165  -0.86102  -0.80039  -0.67617
  Beta  occ. eigenvalues --   -0.51343  -0.49320  -0.47915  -0.37569  -0.35419
  Beta  occ. eigenvalues --   -0.35361  -0.33815  -0.31012  -0.30914
  Beta virt. eigenvalues --   -0.19947  -0.02364   0.01189   0.09154   0.14269
  Beta virt. eigenvalues --    0.30499   0.34859   0.36247   0.37563   0.39260
  Beta virt. eigenvalues --    0.41188   0.41983   0.42932   0.43255   0.47565
  Beta virt. eigenvalues --    0.49066   0.51070   0.51879   0.58480   0.59997
  Beta virt. eigenvalues --    0.75858   0.78603   0.80443   0.83167   0.83653
  Beta virt. eigenvalues --    0.84227   0.86125   0.87444   0.88505   0.88508
  Beta virt. eigenvalues --    0.90348   0.93840   0.95444   1.02870   1.03066
  Beta virt. eigenvalues --    1.10383   1.12587   1.42163   1.68344   1.71814
  Beta virt. eigenvalues --    1.97441   2.11410   2.14960   4.01785   4.22716
  Beta virt. eigenvalues --    4.23327   4.29066
          Condensed to atoms (all electrons):
              1          2          3          4          5          6
     1  C    5.610329   0.086146   0.356881   0.223895   0.223895  -0.104467
     2  H    0.086146   0.715538  -0.020514  -0.035337  -0.035336   0.162192
     3  H    0.356881  -0.020514   0.479996  -0.045314  -0.045314   0.000568
     4  Cl   0.223895  -0.035337  -0.045314  16.848542  -0.081339   0.004880
     5  Cl   0.223895  -0.035336  -0.045314  -0.081339  16.848542   0.004880
     6  Cl  -0.104467   0.162192   0.000568   0.004880   0.004880  17.105624
 Mulliken atomic charges:
              1
     1  C   -0.396679
     2  H    0.127312
     3  H    0.273698
     4  Cl   0.084674
     5  Cl   0.084673
     6  Cl  -0.173678
 Sum of Mulliken atomic charges =   0.00000
 Mulliken charges with hydrogens summed into heavy atoms:
              1
     1  C    0.004331
     4  Cl   0.084674
     5  Cl   0.084673
     6  Cl  -0.173678
 Sum of Mulliken charges with hydrogens summed into heavy atoms =   0.00000
          Atomic-Atomic Spin Densities.
              1          2          3          4          5          6
     1  C    0.631219   0.050576  -0.019450  -0.069421  -0.069421  -0.090279
     2  H    0.050576  -0.112353   0.001584  -0.000476  -0.000476  -0.006769
     3  H   -0.019450   0.001584   0.016707   0.002165   0.002165   0.004023
     4  Cl  -0.069421  -0.000476   0.002165   0.148485   0.007794   0.009061
     5  Cl  -0.069421  -0.000476   0.002165   0.007794   0.148485   0.009061
     6  Cl  -0.090279  -0.006769   0.004023   0.009061   0.009061   0.507181
 Mulliken atomic spin densities:
              1
     1  C    0.433225
     2  H   -0.067914
     3  H    0.007194
     4  Cl   0.097608
     5  Cl   0.097608
     6  Cl   0.432278
 Sum of Mulliken atomic spin densities =   1.00000
 APT atomic charges:
              1
     1  C   -0.755106
     2  H    0.154431
     3  H    0.569006
     4  Cl   0.120413
     5  Cl   0.120413
     6  Cl  -0.209156
 Sum of APT charges=   0.00000
 APT Atomic charges with hydrogens summed into heavy atoms:
              1
     1  C   -0.031670
     2  H    0.000000
     3  H    0.000000
     4  Cl   0.120413
     5  Cl   0.120413
     6  Cl  -0.209156
 Sum of APT charges=   0.00000
 Electronic spatial extent (au):  <R**2>=            886.9941
 Charge=              0.0000 electrons
 Dipole moment (field-independent basis, Debye):
    X=              2.3133    Y=              0.0000    Z=              1.4279  Tot=              2.7185
 Quadrupole moment (field-independent basis, Debye-Ang):
   XX=            -49.3978   YY=            -44.7249   ZZ=            -42.6939
   XY=              0.0000   XZ=              0.4649   YZ=              0.0000
 Traceless Quadrupole moment (field-independent basis, Debye-Ang):
   XX=             -3.7923   YY=              0.8806   ZZ=              2.9117
   XY=              0.0000   XZ=              0.4649   YZ=              0.0000
 Octapole moment (field-independent basis, Debye-Ang**2):
  XXX=             11.4405  YYY=              0.0000  ZZZ=              3.2540  XYY=              5.4715
  XXY=              0.0000  XXZ=             -2.3399  XZZ=              3.2762  YZZ=              0.0000
  YYZ=             -3.1041  XYZ=              0.0000
 Hexadecapole moment (field-independent basis, Debye-Ang**3):
 XXXX=           -695.1797 YYYY=           -339.2761 ZZZZ=            -63.9838 XXXY=              0.0000
 XXXZ=              4.6368 YYYX=              0.0000 YYYZ=              0.0000 ZZZX=              1.8969
 ZZZY=              0.0000 XXYY=           -170.2786 XXZZ=           -129.4074 YYZZ=            -70.2968
 XXYZ=              0.0000 YYXZ=             -5.3638 ZZXY=              0.0000
 N-N= 2.423192155280D+02 E-N=-5.773800839569D+03  KE= 2.121674452510D+03
  Exact polarizability:   0.000   0.000   0.000   0.000   0.000   0.000
 Approx polarizability: 111.080   0.000  79.024  -0.580   0.000  40.593
                          Isotropic Fermi Contact Couplings
        Atom                 a.u.       MegaHertz       Gauss      10(-4) cm-1
     1  C(13)              0.21639     243.26594      86.80333      81.14478
     2  H(2)              -0.01850     -12.69200      -4.52882      -4.23360
     3  H(1)               0.00791      35.33946      12.61000      11.78797
     4  Cl(35)             0.01622       7.11324       2.53818       2.37272
     5  Cl(35)             0.01622       7.11324       2.53818       2.37272
     6  Cl(35)             0.02325      10.19470       3.63772       3.40059
 --------------------------------------------------------
       Center         ----  Spin Dipole Couplings  ----
                      3XX-RR        3YY-RR        3ZZ-RR
 --------------------------------------------------------
     1   Atom        0.452197     -0.277561     -0.174637
     2   Atom        0.150092     -0.079606     -0.070486
     3   Atom       -0.010859     -0.030874      0.041733
     4   Atom        0.654847     -0.390475     -0.264372
     5   Atom        0.654847     -0.390476     -0.264372
     6   Atom        2.555033     -1.413409     -1.141624
 --------------------------------------------------------
                        XY            XZ            YZ
 --------------------------------------------------------
     1   Atom        0.000000      0.273183      0.000000
     2   Atom        0.000000      0.046675      0.000000
     3   Atom        0.000000      0.004552      0.000000
     4   Atom        0.146845      0.336417      0.108088
     5   Atom       -0.146843      0.336417     -0.108087
     6   Atom        0.000000      1.037715      0.000000
 --------------------------------------------------------


 ---------------------------------------------------------------------------------
              Anisotropic Spin Dipole Couplings in Principal Axis System
 ---------------------------------------------------------------------------------

       Atom             a.u.   MegaHertz   Gauss  10(-4) cm-1        Axes

              Baa    -0.2776   -37.246   -13.290   -12.424  0.0000  1.0000  0.0000
     1 C(13)  Bbb    -0.2770   -37.169   -13.263   -12.398 -0.3508  0.0000  0.9364
              Bcc     0.5545    74.414    26.553    24.822  0.9364  0.0000  0.3508
 
              Baa    -0.0800    -6.549    -2.337    -2.184 -0.1988  0.0000  0.9800
     2 H(2)   Bbb    -0.0796    -6.520    -2.327    -2.175  0.0000  1.0000  0.0000
              Bcc     0.1596    13.069     4.663     4.359  0.9800  0.0000  0.1988
 
              Baa    -0.0309   -16.473    -5.878    -5.495  0.0000  1.0000  0.0000
     3 H(1)   Bbb    -0.0113    -6.003    -2.142    -2.002  0.9963  0.0000 -0.0856
              Bcc     0.0421    22.476     8.020     7.497  0.0856  0.0000  0.9963
 
              Baa    -0.4553   -23.831    -8.503    -7.949  0.0684  0.8118 -0.5799
     4 Cl(35) Bbb    -0.3349   -17.530    -6.255    -5.847 -0.3394  0.5656  0.7516
              Bcc     0.7903    41.361    14.759    13.796  0.9382  0.1454  0.3142
 
              Baa    -0.4553   -23.831    -8.503    -7.949 -0.0684  0.8118  0.5799
     5 Cl(35) Bbb    -0.3349   -17.530    -6.255    -5.847 -0.3394 -0.5656  0.7516
              Bcc     0.7903    41.361    14.759    13.796  0.9382 -0.1454  0.3142
 
              Baa    -1.4134   -73.975   -26.396   -24.675  0.0000  1.0000  0.0000
     6 Cl(35) Bbb    -1.4130   -73.953   -26.388   -24.668 -0.2530  0.0000  0.9675
              Bcc     2.8264   147.928    52.784    49.343  0.9675  0.0000  0.2530
 

 ---------------------------------------------------------------------------------

 Calling FoFJK, ICntrl=    100147 FMM=F ISym2X=0 I1Cent= 0 IOpClX= 1 NMat=1 NMatS=1 NMatT=0.
 ***** Axes restored to original set *****
 -------------------------------------------------------------------
 Center     Atomic                   Forces (Hartrees/Bohr)
 Number     Number              X              Y              Z
 -------------------------------------------------------------------
      1        6          -0.017321318    0.017534636    0.017546148
      2        1          -0.002897563    0.012268118   -0.002762525
      3        1           0.010083126   -0.006471550   -0.012494116
      4       17           0.008636596   -0.006962504    0.001178568
      5       17          -0.000272739   -0.010296908   -0.004284357
      6       17           0.001771898   -0.006071791    0.000816282
 -------------------------------------------------------------------
 Cartesian Forces:  Max     0.017546148 RMS     0.009635385

 GradGradGradGradGradGradGradGradGradGradGradGradGradGradGradGradGradGrad
 Berny optimization.
 Internal  Forces:  Max     0.022726081 RMS     0.008341482
 Search for a saddle point.
 Step number   1 out of a maximum of   27
 All quantities printed in internal units (Hartrees-Bohrs-Radians)
 Swaping is turned off.
 Second derivative matrix not updated -- analytic derivatives used.
 The second derivative matrix:
                          R1        R2        R3        R4        R5
           R1           0.04418
           R2           0.00047   0.39842
           R3           0.00991   0.00277   0.21682
           R4           0.00991   0.00277   0.03738   0.21682
           R5           0.08709   0.00091  -0.00212  -0.00212   0.09250
           A1           0.00210   0.00150  -0.00143  -0.00448  -0.00093
           A2           0.00270  -0.00134  -0.00393  -0.01473  -0.00034
           A3           0.00545  -0.00236  -0.01436  -0.00717  -0.00070
           A4          -0.00095  -0.00034   0.00799  -0.01936   0.00024
           A5          -0.00475   0.00045  -0.01680   0.01569   0.00094
           A6          -0.00455   0.00209   0.02853   0.03005   0.00079
           A7           0.00139   0.00088  -0.00286   0.00089   0.00109
           A8           0.00179   0.00098  -0.00058  -0.00181   0.00123
           D1           0.00364   0.00080   0.00074  -0.02637  -0.00120
           D2          -0.00300  -0.00066   0.02083   0.00027   0.00099
           D3           0.00385  -0.00181   0.00386  -0.00403  -0.00037
           D4           0.00685  -0.00114  -0.01697  -0.00430  -0.00136
                          A1        A2        A3        A4        A5
           A1           0.01414
           A2          -0.00840   0.03688
           A3          -0.00947  -0.00734   0.06751
           A4          -0.00926   0.00690   0.02661   0.04916
           A5          -0.01504   0.02372  -0.03036  -0.01759   0.08743
           A6           0.02803  -0.05175  -0.04694  -0.05582  -0.04815
           A7           0.00012   0.00240  -0.00254  -0.00108   0.00033
           A8          -0.00015  -0.00020   0.00159  -0.00001  -0.00097
           D1           0.00650   0.01652   0.00021   0.02299  -0.01467
           D2          -0.00230   0.00026  -0.01115   0.00582  -0.01652
           D3           0.00108   0.00898   0.00360  -0.00944  -0.01903
           D4           0.00339   0.00872   0.01475  -0.01526  -0.00251
                          A6        A7        A8        D1        D2
           A6           0.17464
           A7           0.00077   0.03106
           A8          -0.00026   0.00096   0.01189
           D1          -0.03154   0.00095  -0.00031   0.03215
           D2           0.02390   0.00121  -0.00020   0.00090   0.01977
           D3           0.01481   0.00186   0.00056   0.00104   0.00812
           D4          -0.00909   0.00064   0.00076   0.00015  -0.01164
                          D3        D4
           D3           0.02227
           D4           0.01415   0.02579
 ITU=  0
     Eigenvalues ---   -0.02459   0.01173   0.02758   0.03075   0.05320
     Eigenvalues ---    0.05867   0.12185   0.15878   0.19668   0.20688
     Eigenvalues ---    0.30119   0.39870
 Eigenvectors required to have negative eigenvalues:
                          R1        R5        D4        D1        D2
   1                   -0.78901   0.59173   0.08622   0.05777  -0.05672
                          A1        R4        R3        A5        A4
   1                    0.05235   0.04598   0.04519  -0.04066  -0.03511
 RFO step:  Lambda0=1.448698680D-03 Lambda=-7.55117779D-03.
 Linear search not attempted -- option 19 set.
 Iteration  1 RMS(Cart)=  0.06036947 RMS(Int)=  0.00624553
 Iteration  2 RMS(Cart)=  0.00552665 RMS(Int)=  0.00400252
 Iteration  3 RMS(Cart)=  0.00001330 RMS(Int)=  0.00400249
 Iteration  4 RMS(Cart)=  0.00000006 RMS(Int)=  0.00400249
 Variable       Old X    -DE/DX   Delta X   Delta X   Delta X     New X
                                 (Linear)    (Quad)   (Total)
    R1        2.57003  -0.00658   0.00000   0.15943   0.15943   2.72946
    R2        2.02201   0.01391   0.00000   0.03395   0.03395   2.05595
    R3        3.32592  -0.00049   0.00000  -0.04551  -0.04551   3.28041
    R4        3.32592  -0.00049   0.00000  -0.04535  -0.04535   3.28056
    R5        2.83459   0.00631   0.00000  -0.10026  -0.10026   2.73433
    A1        1.91063  -0.00067   0.00000  -0.11604  -0.11484   1.79579
    A2        1.91063  -0.00799   0.00000  -0.05391  -0.05098   1.85966
    A3        1.91063  -0.01017   0.00000  -0.05179  -0.05109   1.85955
    A4        1.91063  -0.00424   0.00000   0.05478   0.04434   1.95497
    A5        1.91063   0.00033   0.00000   0.05265   0.04476   1.95540
    A6        1.91063   0.02273   0.00000   0.11431   0.10798   2.01862
    A7        3.14159   0.00129   0.00000   0.02742   0.02742   3.16901
    A8        3.14159   0.00144   0.00000   0.06911   0.06911   3.21070
    D1        2.09439  -0.00830   0.00000  -0.14158  -0.14332   1.95107
    D2       -2.09439   0.00684   0.00000   0.14159   0.14318  -1.95121
    D3        2.09439  -0.00209   0.00000  -0.02774  -0.03163   2.06277
    D4       -2.09440  -0.00893   0.00000  -0.16934  -0.17481  -2.26920
         Item               Value     Threshold  Converged?
 Maximum Force            0.022726     0.000450     NO 
 RMS     Force            0.008341     0.000300     NO 
 Maximum Displacement     0.129756     0.001800     NO 
 RMS     Displacement     0.058651     0.001200     NO 
 Predicted change in Energy=-3.377407D-03
 GradGradGradGradGradGradGradGradGradGradGradGradGradGradGradGradGradGrad

                          Input orientation:                          
 ---------------------------------------------------------------------
 Center     Atomic      Atomic             Coordinates (Angstroms)
 Number     Number       Type             X           Y           Z
 ---------------------------------------------------------------------
      1          6           0        0.227772    2.072626   -0.169909
      2          1           0        0.519853    0.705141    0.191854
      3          1           0        0.759598    2.193548   -1.111295
      4         17           0        0.893225    3.069293    1.085974
      5         17           0       -1.492996    2.172573   -0.376458
      6         17           0        0.847487   -0.672748    0.488039
 ---------------------------------------------------------------------
                    Distance matrix (angstroms):
                    1          2          3          4          5
     1  C    0.000000
     2  H    1.444368   0.000000
     3  H    1.087965   1.992745   0.000000
     4  Cl   1.735919   2.555009   2.369129   0.000000
     5  Cl   1.736000   2.554975   2.369515   2.938854   0.000000
     6  Cl   2.890333   1.446944   3.283481   3.789787   3.784319
                    6
     6  Cl   0.000000
 Stoichiometry    CH2Cl3(2)
 Framework group  C1[X(CH2Cl3)]
 Deg. of freedom    12
 Full point group                 C1      NOp   1
 Largest Abelian subgroup         C1      NOp   1
 Largest concise Abelian subgroup C1      NOp   1
                         Standard orientation:                         
 ---------------------------------------------------------------------
 Center     Atomic      Atomic             Coordinates (Angstroms)
 Number     Number       Type             X           Y           Z
 ---------------------------------------------------------------------
      1          6           0        0.458563    0.000186    0.529903
      2          1           0       -0.947205    0.006028    0.198270
      3          1           0        0.451298    0.000606    1.617843
      4         17           0        1.125300    1.466678   -0.116840
      5         17           0        1.112845   -1.472149   -0.116502
      6         17           0       -2.370820    0.005015   -0.060513
 ---------------------------------------------------------------------
 Rotational constants (GHZ):      3.1956938      1.7084605      1.1494129
 Standard basis: 6-31G(d) (6D, 7F)
 There are    76 symmetry adapted basis functions of A   symmetry.
 Integral buffers will be    131072 words long.
 Raffenetti 2 integral format.
 Two-electron integral symmetry is turned on.
    76 basis functions,   192 primitive gaussians,    76 cartesian basis functions
    30 alpha electrons       29 beta electrons
       nuclear repulsion energy       242.6392999168 Hartrees.
 NAtoms=    6 NActive=    6 NUniq=    6 SFac= 1.00D+00 NAtFMM=   60 NAOKFM=F Big=F
 One-electron integrals computed using PRISM.
 NBasis=    76 RedAO= T  NBF=    76
 NBsUse=    76 1.00D-06 NBFU=    76
 Initial guess read from the read-write file.
 B after Tr=     0.000000    0.000000    0.000000
         Rot=    1.000000    0.000000    0.000000    0.000000 Ang=   0.00 deg.
 Initial guess orbital symmetries:
 Alpha Orbitals:
       Occupied  (A) (A) (A) (A) (A) (A) (A) (A) (A) (A) (A) (A)
                 (A) (A) (A) (A) (A) (A) (A) (A) (A) (A) (A) (A)
                 (A) (A) (A) (A) (A) (A)
       Virtual   (A) (A) (A) (A) (A) (A) (A) (A) (A) (A) (A) (A)
                 (A) (A) (A) (A) (A) (A) (A) (A) (A) (A) (A) (A)
                 (A) (A) (A) (A) (A) (A) (A) (A) (A) (A) (A) (A)
                 (A) (A) (A) (A) (A) (A) (A) (A) (A) (A)
 Beta  Orbitals:
       Occupied  (A) (A) (A) (A) (A) (A) (A) (A) (A) (A) (A) (A)
                 (A) (A) (A) (A) (A) (A) (A) (A) (A) (A) (A) (A)
                 (A) (A) (A) (A) (A)
       Virtual   (A) (A) (A) (A) (A) (A) (A) (A) (A) (A) (A) (A)
                 (A) (A) (A) (A) (A) (A) (A) (A) (A) (A) (A) (A)
                 (A) (A) (A) (A) (A) (A) (A) (A) (A) (A) (A) (A)
                 (A) (A) (A) (A) (A) (A) (A) (A) (A) (A) (A)
 Initial guess <Sx>= 0.0000 <Sy>= 0.0000 <Sz>= 0.5000 <S**2>= 0.7555 S= 0.5027
 Harris functional with IExCor=  402 diagonalized for initial guess.
 ExpMin= 1.43D-01 ExpMax= 2.52D+04 ExpMxC= 3.78D+03 IAcc=1 IRadAn=         1 AccDes= 0.00D+00
 HarFok:  IExCor=  402 AccDes= 0.00D+00 IRadAn=         1 IDoV= 1
 ScaDFX=  1.000000  1.000000  1.000000  1.000000
 FoFCou: FMM=F IPFlag=           0 FMFlag=      100000 FMFlg1=           0
         NFxFlg=           0 DoJE=T BraDBF=F KetDBF=T FulRan=T
         Omega=  0.000000  0.000000  1.000000  0.000000  0.000000 ICntrl=     500 IOpCl=  0
         NMat0=    1 NMatS0=    1 NMatT0=    0 NMatD0=    1 NMtDS0=    0 NMtDT0=    0
         I1Cent=           4 NGrid=           0.
 Petite list used in FoFCou.
 Requested convergence on RMS density matrix=1.00D-08 within 128 cycles.
 Requested convergence on MAX density matrix=1.00D-06.
 Requested convergence on             energy=1.00D-06.
 No special actions if energy rises.
 Keep R1 and R2 ints in memory in canonical form, NReq=9546585.
 Integral accuracy reduced to 1.0D-05 until final iterations.
 Initial convergence to 1.0D-05 achieved.  Increase integral accuracy.
 SCF Done:  E(UB3LYP) =  -1419.82688617     A.U. after   15 cycles
             Convg  =    0.5522D-08             -V/T =  2.0032
 <Sx>= 0.0000 <Sy>= 0.0000 <Sz>= 0.5000 <S**2>= 0.7549 S= 0.5024
 <L.S>= 0.000000000000E+00
 Annihilation of the first spin contaminant:
 S**2 before annihilation     0.7549,   after     0.7500
 Calling FoFJK, ICntrl=      2127 FMM=F ISym2X=0 I1Cent= 0 IOpClX= 1 NMat=1 NMatS=1 NMatT=0.
 ***** Axes restored to original set *****
 -------------------------------------------------------------------
 Center     Atomic                   Forces (Hartrees/Bohr)
 Number     Number              X              Y              Z
 -------------------------------------------------------------------
      1        6          -0.002643307    0.007497994   -0.000258840
      2        1          -0.000207545    0.001384867   -0.000694332
      3        1           0.001513177   -0.003485461   -0.000392740
      4       17           0.002225674   -0.000766498    0.001733494
      5       17          -0.001650228   -0.002241154   -0.000703129
      6       17           0.000762229   -0.002389747    0.000315547
 -------------------------------------------------------------------
 Cartesian Forces:  Max     0.007497994 RMS     0.002397770

 GradGradGradGradGradGradGradGradGradGradGradGradGradGradGradGradGradGrad
 Berny optimization.
 Internal  Forces:  Max     0.003850004 RMS     0.001757562
 Search for a saddle point.
 Step number   2 out of a maximum of   27
 All quantities printed in internal units (Hartrees-Bohrs-Radians)
 Swaping is turned off.
 Update second derivatives using D2CorX and points    1    2
 The second derivative matrix:
                          R1        R2        R3        R4        R5
           R1           0.04206
           R2          -0.00011   0.39827
           R3           0.00789   0.00233   0.21712
           R4           0.00803   0.00236   0.03770   0.21715
           R5           0.08508   0.00049  -0.00120  -0.00122   0.09421
           A1           0.00267   0.00170  -0.00008  -0.00321   0.00065
           A2           0.00394  -0.00102  -0.00322  -0.01409   0.00022
           A3           0.00716  -0.00193  -0.01361  -0.00648  -0.00019
           A4           0.00012  -0.00011   0.00760  -0.01974  -0.00054
           A5          -0.00480   0.00041  -0.01731   0.01521   0.00031
           A6          -0.00810   0.00120   0.02695   0.02860  -0.00030
           A7           0.00137   0.00086  -0.00317   0.00059   0.00070
           A8           0.00169   0.00092  -0.00137  -0.00256   0.00024
           D1           0.00549   0.00132   0.00254  -0.02468   0.00062
           D2          -0.00458  -0.00112   0.01906  -0.00139  -0.00087
           D3           0.00459  -0.00162   0.00430  -0.00363  -0.00001
           D4           0.00917  -0.00050  -0.01476  -0.00224   0.00085
                          A1        A2        A3        A4        A5
           A1           0.01428
           A2          -0.00891   0.03625
           A3          -0.01025  -0.00815   0.06647
           A4          -0.01006   0.00658   0.02630   0.04951
           A5          -0.01520   0.02385  -0.03014  -0.01727   0.08752
           A6           0.02964  -0.05006  -0.04479  -0.05517  -0.04861
           A7           0.00001   0.00247  -0.00242  -0.00088   0.00039
           A8          -0.00037   0.00000   0.00195   0.00048  -0.00083
           D1           0.00602   0.01542  -0.00130   0.02203  -0.01463
           D2          -0.00198   0.00124  -0.00976   0.00678  -0.01651
           D3           0.00079   0.00861   0.00312  -0.00964  -0.01896
           D4           0.00277   0.00736   0.01288  -0.01642  -0.00245
                          A6        A7        A8        D1        D2
           A6           0.17013
           A7           0.00051   0.03110
           A8          -0.00100   0.00105   0.01210
           D1          -0.02840   0.00096  -0.00024   0.03054
           D2           0.02103   0.00124  -0.00019   0.00227   0.01861
           D3           0.01582   0.00190   0.00068   0.00040   0.00870
           D4          -0.00520   0.00066   0.00087  -0.00187  -0.00991
                          D3        D4
           D3           0.02205
           D4           0.01335   0.02326
 ITU=  0  0
     Eigenvalues ---   -0.02355   0.01193   0.02677   0.03064   0.05178
     Eigenvalues ---    0.05680   0.11958   0.15775   0.19629   0.20634
     Eigenvalues ---    0.29446   0.39843
 Eigenvectors required to have negative eigenvalues:
                          R1        R5        D4        D1        D2
   1                   -0.79811   0.57535   0.10197   0.06465  -0.06136
                          A1        D3        R4        A5        R3
   1                    0.05018   0.04061   0.04000  -0.03747   0.03731
 RFO step:  Lambda0=1.124311096D-07 Lambda=-6.28444434D-04.
 Linear search not attempted -- option 19 set.
 Iteration  1 RMS(Cart)=  0.02525420 RMS(Int)=  0.00078547
 Iteration  2 RMS(Cart)=  0.00071769 RMS(Int)=  0.00031541
 Iteration  3 RMS(Cart)=  0.00000026 RMS(Int)=  0.00031541
 Variable       Old X    -DE/DX   Delta X   Delta X   Delta X     New X
                                 (Linear)    (Quad)   (Total)
    R1        2.72946   0.00096   0.00000  -0.00171  -0.00171   2.72775
    R2        2.05595   0.00069   0.00000   0.00197   0.00197   2.05792
    R3        3.28041   0.00167   0.00000  -0.00226  -0.00226   3.27815
    R4        3.28056   0.00159   0.00000  -0.00180  -0.00180   3.27876
    R5        2.73433   0.00251   0.00000   0.02969   0.02969   2.76402
    A1        1.79579  -0.00097   0.00000  -0.04991  -0.04978   1.74601
    A2        1.85966  -0.00137   0.00000  -0.00700  -0.00685   1.85281
    A3        1.85955  -0.00186   0.00000  -0.00685  -0.00686   1.85269
    A4        1.95497  -0.00080   0.00000   0.01628   0.01548   1.97045
    A5        1.95540   0.00033   0.00000   0.01389   0.01324   1.96863
    A6        2.01862   0.00385   0.00000   0.02142   0.02084   2.03945
    A7        3.16901   0.00017   0.00000   0.00391   0.00391   3.17292
    A8        3.21070   0.00047   0.00000   0.04112   0.04112   3.25182
    D1        1.95107  -0.00228   0.00000  -0.05500  -0.05518   1.89589
    D2       -1.95121   0.00201   0.00000   0.05608   0.05621  -1.89501
    D3        2.06277  -0.00074   0.00000  -0.00090  -0.00114   2.06163
    D4       -2.26920  -0.00275   0.00000  -0.05698  -0.05735  -2.32655
         Item               Value     Threshold  Converged?
 Maximum Force            0.003850     0.000450     NO 
 RMS     Force            0.001758     0.000300     NO 
 Maximum Displacement     0.071456     0.001800     NO 
 RMS     Displacement     0.025443     0.001200     NO 
 Predicted change in Energy=-3.201583D-04
 GradGradGradGradGradGradGradGradGradGradGradGradGradGradGradGradGradGrad

                          Input orientation:                          
 ---------------------------------------------------------------------
 Center     Atomic      Atomic             Coordinates (Angstroms)
 Number     Number       Type             X           Y           Z
 ---------------------------------------------------------------------
      1          6           0        0.218216    2.087486   -0.164179
      2          1           0        0.507196    0.720270    0.197472
      3          1           0        0.766968    2.155735   -1.102340
      4         17           0        0.900206    3.073044    1.089945
      5         17           0       -1.500718    2.175867   -0.382909
      6         17           0        0.863071   -0.671968    0.470216
 ---------------------------------------------------------------------
                    Distance matrix (angstroms):
                    1          2          3          4          5
     1  C    0.000000
     2  H    1.443462   0.000000
     3  H    1.089005   1.953856   0.000000
     4  Cl   1.734722   2.546863   2.380193   0.000000
     5  Cl   1.735048   2.547023   2.379157   2.956123   0.000000
     6  Cl   2.903943   1.462656   3.236985   3.796124   3.798089
                    6
     6  Cl   0.000000
 Stoichiometry    CH2Cl3(2)
 Framework group  C1[X(CH2Cl3)]
 Deg. of freedom    12
 Full point group                 C1      NOp   1
 Largest Abelian subgroup         C1      NOp   1
 Largest concise Abelian subgroup C1      NOp   1
                         Standard orientation:                         
 ---------------------------------------------------------------------
 Center     Atomic      Atomic             Coordinates (Angstroms)
 Number     Number       Type             X           Y           Z
 ---------------------------------------------------------------------
      1          6           0        0.469477    0.000148    0.518899
      2          1           0       -0.932773   -0.002029    0.176448
      3          1           0        0.399492   -0.001036    1.605652
      4         17           0        1.118700    1.479041   -0.114067
      5         17           0        1.123212   -1.477079   -0.114206
      6         17           0       -2.376240   -0.001834   -0.059697
 ---------------------------------------------------------------------
 Rotational constants (GHZ):      3.1648101      1.7028361      1.1416340
 Standard basis: 6-31G(d) (6D, 7F)
 There are    76 symmetry adapted basis functions of A   symmetry.
 Integral buffers will be    131072 words long.
 Raffenetti 2 integral format.
 Two-electron integral symmetry is turned on.
    76 basis functions,   192 primitive gaussians,    76 cartesian basis functions
    30 alpha electrons       29 beta electrons
       nuclear repulsion energy       242.0380670887 Hartrees.
 NAtoms=    6 NActive=    6 NUniq=    6 SFac= 1.00D+00 NAtFMM=   60 NAOKFM=F Big=F
 One-electron integrals computed using PRISM.
 NBasis=    76 RedAO= T  NBF=    76
 NBsUse=    76 1.00D-06 NBFU=    76
 Initial guess read from the read-write file.
 B after Tr=     0.000000    0.000000    0.000000
         Rot=    1.000000    0.000000    0.000000    0.000000 Ang=   0.00 deg.
 Initial guess orbital symmetries:
 Alpha Orbitals:
       Occupied  (A) (A) (A) (A) (A) (A) (A) (A) (A) (A) (A) (A)
                 (A) (A) (A) (A) (A) (A) (A) (A) (A) (A) (A) (A)
                 (A) (A) (A) (A) (A) (A)
       Virtual   (A) (A) (A) (A) (A) (A) (A) (A) (A) (A) (A) (A)
                 (A) (A) (A) (A) (A) (A) (A) (A) (A) (A) (A) (A)
                 (A) (A) (A) (A) (A) (A) (A) (A) (A) (A) (A) (A)
                 (A) (A) (A) (A) (A) (A) (A) (A) (A) (A)
 Beta  Orbitals:
       Occupied  (A) (A) (A) (A) (A) (A) (A) (A) (A) (A) (A) (A)
                 (A) (A) (A) (A) (A) (A) (A) (A) (A) (A) (A) (A)
                 (A) (A) (A) (A) (A)
       Virtual   (A) (A) (A) (A) (A) (A) (A) (A) (A) (A) (A) (A)
                 (A) (A) (A) (A) (A) (A) (A) (A) (A) (A) (A) (A)
                 (A) (A) (A) (A) (A) (A) (A) (A) (A) (A) (A) (A)
                 (A) (A) (A) (A) (A) (A) (A) (A) (A) (A) (A)
 Initial guess <Sx>= 0.0000 <Sy>= 0.0000 <Sz>= 0.5000 <S**2>= 0.7549 S= 0.5025
 Harris functional with IExCor=  402 diagonalized for initial guess.
 ExpMin= 1.43D-01 ExpMax= 2.52D+04 ExpMxC= 3.78D+03 IAcc=1 IRadAn=         1 AccDes= 0.00D+00
 HarFok:  IExCor=  402 AccDes= 0.00D+00 IRadAn=         1 IDoV= 1
 ScaDFX=  1.000000  1.000000  1.000000  1.000000
 FoFCou: FMM=F IPFlag=           0 FMFlag=      100000 FMFlg1=           0
         NFxFlg=           0 DoJE=T BraDBF=F KetDBF=T FulRan=T
         Omega=  0.000000  0.000000  1.000000  0.000000  0.000000 ICntrl=     500 IOpCl=  0
         NMat0=    1 NMatS0=    1 NMatT0=    0 NMatD0=    1 NMtDS0=    0 NMtDT0=    0
         I1Cent=           4 NGrid=           0.
 Petite list used in FoFCou.
 Requested convergence on RMS density matrix=1.00D-08 within 128 cycles.
 Requested convergence on MAX density matrix=1.00D-06.
 Requested convergence on             energy=1.00D-06.
 No special actions if energy rises.
 Keep R1 and R2 ints in memory in canonical form, NReq=9546585.
 Integral accuracy reduced to 1.0D-05 until final iterations.
 Initial convergence to 1.0D-05 achieved.  Increase integral accuracy.
 SCF Done:  E(UB3LYP) =  -1419.82722675     A.U. after   13 cycles
             Convg  =    0.6892D-08             -V/T =  2.0032
 <Sx>= 0.0000 <Sy>= 0.0000 <Sz>= 0.5000 <S**2>= 0.7550 S= 0.5025
 <L.S>= 0.000000000000E+00
 Annihilation of the first spin contaminant:
 S**2 before annihilation     0.7550,   after     0.7500
 Calling FoFJK, ICntrl=      2127 FMM=F ISym2X=0 I1Cent= 0 IOpClX= 1 NMat=1 NMatS=1 NMatT=0.
 ***** Axes restored to original set *****
 -------------------------------------------------------------------
 Center     Atomic                   Forces (Hartrees/Bohr)
 Number     Number              X              Y              Z
 -------------------------------------------------------------------
      1        6          -0.000455050    0.001040448   -0.000236620
      2        1           0.000326830   -0.000934233    0.000111549
      3        1           0.000200916   -0.000532683    0.000205609
      4       17           0.000520854   -0.000140796    0.000295292
      5       17          -0.000314308   -0.000470851   -0.000156799
      6       17          -0.000279242    0.001038115   -0.000219029
 -------------------------------------------------------------------
 Cartesian Forces:  Max     0.001040448 RMS     0.000507229

 GradGradGradGradGradGradGradGradGradGradGradGradGradGradGradGradGradGrad
 Berny optimization.
 Internal  Forces:  Max     0.001096916 RMS     0.000431398
 Search for a saddle point.
 Step number   3 out of a maximum of   27
 All quantities printed in internal units (Hartrees-Bohrs-Radians)
 Swaping is turned off.
 Update second derivatives using D2CorX and points    1    2    3
 The second derivative matrix:
                          R1        R2        R3        R4        R5
           R1           0.04230
           R2          -0.00002   0.39831
           R3           0.00771   0.00226   0.21719
           R4           0.00786   0.00230   0.03776   0.21720
           R5           0.08547   0.00072  -0.00145  -0.00144   0.09566
           A1           0.00227   0.00133   0.00099  -0.00225  -0.00291
           A2           0.00399  -0.00105  -0.00297  -0.01386  -0.00043
           A3           0.00723  -0.00196  -0.01335  -0.00625  -0.00086
           A4           0.00017  -0.00002   0.00723  -0.02008   0.00063
           A5          -0.00482   0.00048  -0.01767   0.01489   0.00135
           A6          -0.00823   0.00129   0.02627   0.02800   0.00152
           A7           0.00141   0.00089  -0.00329   0.00049   0.00104
           A8           0.00200   0.00121  -0.00221  -0.00331   0.00310
           D1           0.00514   0.00093   0.00379  -0.02357  -0.00342
           D2          -0.00417  -0.00071   0.01782  -0.00250   0.00322
           D3           0.00451  -0.00165   0.00435  -0.00359  -0.00017
           D4           0.00867  -0.00094  -0.01347  -0.00108  -0.00339
                          A1        A2        A3        A4        A5
           A1           0.01447
           A2          -0.01030   0.03550
           A3          -0.01178  -0.00896   0.06561
           A4          -0.00938   0.00729   0.02707   0.04899
           A5          -0.01393   0.02471  -0.02921  -0.01801   0.08657
           A6           0.03302  -0.04814  -0.04274  -0.05694  -0.05079
           A7           0.00014   0.00266  -0.00221  -0.00101   0.00020
           A8          -0.00071   0.00105   0.00310   0.00002  -0.00175
           D1           0.00519   0.01348  -0.00343   0.02323  -0.01273
           D2          -0.00171   0.00301  -0.00783   0.00580  -0.01817
           D3           0.00111   0.00864   0.00315  -0.00973  -0.01903
           D4           0.00282   0.00563   0.01098  -0.01554  -0.00085
                          A6        A7        A8        D1        D2
           A6           0.16528
           A7           0.00004   0.03107
           A8          -0.00352   0.00097   0.01252
           D1          -0.02363   0.00123   0.00019   0.02828
           D2           0.01671   0.00103  -0.00018   0.00383   0.01773
           D3           0.01572   0.00187   0.00043   0.00074   0.00835
           D4          -0.00099   0.00083   0.00061  -0.00310  -0.00938
                          D3        D4
           D3           0.02208
           D4           0.01373   0.02311
 ITU=  0  0  0
     Eigenvalues ---   -0.02527   0.01215   0.02605   0.03014   0.05062
     Eigenvalues ---    0.05621   0.11840   0.15851   0.19603   0.20533
     Eigenvalues ---    0.29099   0.39846
 Eigenvectors required to have negative eigenvalues:
                          R1        R5        D4        D1        D2
   1                   -0.78184   0.56784   0.14587   0.11068  -0.10820
                          A1        A6        A5        R4        R3
   1                    0.09168  -0.04800  -0.04498   0.04253   0.04019
 RFO step:  Lambda0=2.109299613D-05 Lambda=-1.85049221D-05.
 Linear search not attempted -- option 19 set.
 Iteration  1 RMS(Cart)=  0.00773416 RMS(Int)=  0.00000721
 Iteration  2 RMS(Cart)=  0.00001031 RMS(Int)=  0.00000191
 Iteration  3 RMS(Cart)=  0.00000000 RMS(Int)=  0.00000191
 Variable       Old X    -DE/DX   Delta X   Delta X   Delta X     New X
                                 (Linear)    (Quad)   (Total)
    R1        2.72775  -0.00012   0.00000  -0.02903  -0.02903   2.69872
    R2        2.05792  -0.00011   0.00000  -0.00033  -0.00033   2.05759
    R3        3.27815   0.00034   0.00000   0.00185   0.00185   3.28000
    R4        3.27876   0.00031   0.00000   0.00122   0.00122   3.27999
    R5        2.76402  -0.00110   0.00000   0.01386   0.01386   2.77788
    A1        1.74601  -0.00009   0.00000  -0.00303  -0.00303   1.74298
    A2        1.85281  -0.00029   0.00000  -0.00093  -0.00093   1.85188
    A3        1.85269  -0.00043   0.00000  -0.00051  -0.00051   1.85218
    A4        1.97045  -0.00034   0.00000  -0.00062  -0.00062   1.96983
    A5        1.96863   0.00005   0.00000   0.00097   0.00097   1.96960
    A6        2.03945   0.00089   0.00000   0.00292   0.00292   2.04237
    A7        3.17292   0.00006   0.00000   0.00291   0.00291   3.17583
    A8        3.25182   0.00000   0.00000   0.00277   0.00277   3.25459
    D1        1.89589  -0.00042   0.00000  -0.00434  -0.00433   1.89155
    D2       -1.89501   0.00032   0.00000   0.00339   0.00339  -1.89161
    D3        2.06163  -0.00015   0.00000   0.00020   0.00019   2.06182
    D4       -2.32655  -0.00047   0.00000  -0.00320  -0.00320  -2.32975
         Item               Value     Threshold  Converged?
 Maximum Force            0.001097     0.000450     NO 
 RMS     Force            0.000431     0.000300     NO 
 Maximum Displacement     0.022757     0.001800     NO 
 RMS     Displacement     0.007737     0.001200     NO 
 Predicted change in Energy= 1.301805D-06
 GradGradGradGradGradGradGradGradGradGradGradGradGradGradGradGradGradGrad

                          Input orientation:                          
 ---------------------------------------------------------------------
 Center     Atomic      Atomic             Coordinates (Angstroms)
 Number     Number       Type             X           Y           Z
 ---------------------------------------------------------------------
      1          6           0        0.218193    2.084579   -0.162640
      2          1           0        0.504262    0.732312    0.196545
      3          1           0        0.768608    2.149090   -1.099888
      4         17           0        0.902913    3.070841    1.090800
      5         17           0       -1.501223    2.171198   -0.383422
      6         17           0        0.862187   -0.667586    0.466811
 ---------------------------------------------------------------------
                    Distance matrix (angstroms):
                    1          2          3          4          5
     1  C    0.000000
     2  H    1.428102   0.000000
     3  H    1.088830   1.938524   0.000000
     4  Cl   1.735703   2.535218   2.380499   0.000000
     5  Cl   1.735695   2.535492   2.380324   2.960161   0.000000
     6  Cl   2.895747   1.469990   3.224432   3.790364   3.790422
                    6
     6  Cl   0.000000
 Stoichiometry    CH2Cl3(2)
 Framework group  C1[X(CH2Cl3)]
 Deg. of freedom    12
 Full point group                 C1      NOp   1
 Largest Abelian subgroup         C1      NOp   1
 Largest concise Abelian subgroup C1      NOp   1
                         Standard orientation:                         
 ---------------------------------------------------------------------
 Center     Atomic      Atomic             Coordinates (Angstroms)
 Number     Number       Type             X           Y           Z
 ---------------------------------------------------------------------
      1          6           0        0.467088   -0.000006    0.517011
      2          1           0       -0.919631    0.000166    0.175709
      3          1           0        0.391868   -0.000150    1.603241
      4         17           0        1.118342    1.480114   -0.113684
      5         17           0        1.118490   -1.480047   -0.113695
      6         17           0       -2.370642   -0.000066   -0.059740
 ---------------------------------------------------------------------
 Rotational constants (GHZ):      3.1573103      1.7111844      1.1441966
 Standard basis: 6-31G(d) (6D, 7F)
 There are    76 symmetry adapted basis functions of A   symmetry.
 Integral buffers will be    131072 words long.
 Raffenetti 2 integral format.
 Two-electron integral symmetry is turned on.
    76 basis functions,   192 primitive gaussians,    76 cartesian basis functions
    30 alpha electrons       29 beta electrons
       nuclear repulsion energy       242.1699308063 Hartrees.
 NAtoms=    6 NActive=    6 NUniq=    6 SFac= 1.00D+00 NAtFMM=   60 NAOKFM=F Big=F
 One-electron integrals computed using PRISM.
 NBasis=    76 RedAO= T  NBF=    76
 NBsUse=    76 1.00D-06 NBFU=    76
 Initial guess read from the read-write file.
 B after Tr=     0.000000    0.000000    0.000000
         Rot=    1.000000    0.000000    0.000000    0.000000 Ang=   0.00 deg.
 Initial guess orbital symmetries:
 Alpha Orbitals:
       Occupied  (A) (A) (A) (A) (A) (A) (A) (A) (A) (A) (A) (A)
                 (A) (A) (A) (A) (A) (A) (A) (A) (A) (A) (A) (A)
                 (A) (A) (A) (A) (A) (A)
       Virtual   (A) (A) (A) (A) (A) (A) (A) (A) (A) (A) (A) (A)
                 (A) (A) (A) (A) (A) (A) (A) (A) (A) (A) (A) (A)
                 (A) (A) (A) (A) (A) (A) (A) (A) (A) (A) (A) (A)
                 (A) (A) (A) (A) (A) (A) (A) (A) (A) (A)
 Beta  Orbitals:
       Occupied  (A) (A) (A) (A) (A) (A) (A) (A) (A) (A) (A) (A)
                 (A) (A) (A) (A) (A) (A) (A) (A) (A) (A) (A) (A)
                 (A) (A) (A) (A) (A)
       Virtual   (A) (A) (A) (A) (A) (A) (A) (A) (A) (A) (A) (A)
                 (A) (A) (A) (A) (A) (A) (A) (A) (A) (A) (A) (A)
                 (A) (A) (A) (A) (A) (A) (A) (A) (A) (A) (A) (A)
                 (A) (A) (A) (A) (A) (A) (A) (A) (A) (A) (A)
 Initial guess <Sx>= 0.0000 <Sy>= 0.0000 <Sz>= 0.5000 <S**2>= 0.7550 S= 0.5025
 Harris functional with IExCor=  402 diagonalized for initial guess.
 ExpMin= 1.43D-01 ExpMax= 2.52D+04 ExpMxC= 3.78D+03 IAcc=1 IRadAn=         1 AccDes= 0.00D+00
 HarFok:  IExCor=  402 AccDes= 0.00D+00 IRadAn=         1 IDoV= 1
 ScaDFX=  1.000000  1.000000  1.000000  1.000000
 FoFCou: FMM=F IPFlag=           0 FMFlag=      100000 FMFlg1=           0
         NFxFlg=           0 DoJE=T BraDBF=F KetDBF=T FulRan=T
         Omega=  0.000000  0.000000  1.000000  0.000000  0.000000 ICntrl=     500 IOpCl=  0
         NMat0=    1 NMatS0=    1 NMatT0=    0 NMatD0=    1 NMtDS0=    0 NMtDT0=    0
         I1Cent=           4 NGrid=           0.
 Petite list used in FoFCou.
 Requested convergence on RMS density matrix=1.00D-08 within 128 cycles.
 Requested convergence on MAX density matrix=1.00D-06.
 Requested convergence on             energy=1.00D-06.
 No special actions if energy rises.
 Keep R1 and R2 ints in memory in canonical form, NReq=9546585.
 Integral accuracy reduced to 1.0D-05 until final iterations.
 Initial convergence to 1.0D-05 achieved.  Increase integral accuracy.
 SCF Done:  E(UB3LYP) =  -1419.82722882     A.U. after   13 cycles
             Convg  =    0.4365D-08             -V/T =  2.0032
 <Sx>= 0.0000 <Sy>= 0.0000 <Sz>= 0.5000 <S**2>= 0.7550 S= 0.5025
 <L.S>= 0.000000000000E+00
 Annihilation of the first spin contaminant:
 S**2 before annihilation     0.7550,   after     0.7500
 Calling FoFJK, ICntrl=      2127 FMM=F ISym2X=0 I1Cent= 0 IOpClX= 1 NMat=1 NMatS=1 NMatT=0.
 ***** Axes restored to original set *****
 -------------------------------------------------------------------
 Center     Atomic                   Forces (Hartrees/Bohr)
 Number     Number              X              Y              Z
 -------------------------------------------------------------------
      1        6          -0.000018200   -0.000179480    0.000136702
      2        1           0.000004133    0.000007819   -0.000039356
      3        1           0.000046566   -0.000020210   -0.000035285
      4       17           0.000113601   -0.000025750    0.000036828
      5       17          -0.000059336   -0.000096036   -0.000054724
      6       17          -0.000086765    0.000313656   -0.000044164
 -------------------------------------------------------------------
 Cartesian Forces:  Max     0.000313656 RMS     0.000104137

 GradGradGradGradGradGradGradGradGradGradGradGradGradGradGradGradGradGrad
 Berny optimization.
 Internal  Forces:  Max     0.000341618 RMS     0.000136974
 Search for a saddle point.
 Step number   4 out of a maximum of   27
 All quantities printed in internal units (Hartrees-Bohrs-Radians)
 Swaping is turned off.
 Update second derivatives using D2CorX and points    1    2    3    4
 The second derivative matrix:
                          R1        R2        R3        R4        R5
           R1           0.02889
           R2           0.00146   0.39819
           R3           0.00944   0.00220   0.21701
           R4           0.00967   0.00225   0.03757   0.21701
           R5           0.07865   0.00062  -0.00176  -0.00183   0.10400
           A1           0.00272   0.00156   0.00098  -0.00221  -0.00461
           A2           0.00146  -0.00085  -0.00297  -0.01383   0.00072
           A3           0.00365  -0.00173  -0.01328  -0.00617   0.00062
           A4           0.00015  -0.00003   0.00732  -0.02001   0.00013
           A5          -0.00409   0.00038  -0.01759   0.01493   0.00069
           A6          -0.00064   0.00074   0.02608   0.02776  -0.00106
           A7           0.00103   0.00077  -0.00323   0.00051   0.00171
           A8           0.00198   0.00103  -0.00232  -0.00345   0.00480
           D1           0.00289   0.00136   0.00388  -0.02341  -0.00440
           D2          -0.00283  -0.00107   0.01775  -0.00262   0.00450
           D3           0.00475  -0.00162   0.00428  -0.00366  -0.00025
           D4           0.00758  -0.00055  -0.01347  -0.00103  -0.00475
                          A1        A2        A3        A4        A5
           A1           0.01489
           A2          -0.01045   0.03569
           A3          -0.01207  -0.00882   0.06568
           A4          -0.00943   0.00706   0.02684   0.04910
           A5          -0.01402   0.02442  -0.02947  -0.01781   0.08690
           A6           0.03348  -0.04837  -0.04277  -0.05641  -0.05021
           A7          -0.00009   0.00264  -0.00217  -0.00094   0.00033
           A8          -0.00104   0.00133   0.00352   0.00000  -0.00180
           D1           0.00544   0.01334  -0.00378   0.02302  -0.01297
           D2          -0.00199   0.00321  -0.00745   0.00594  -0.01803
           D3           0.00108   0.00864   0.00315  -0.00973  -0.01903
           D4           0.00307   0.00543   0.01060  -0.01567  -0.00100
                          A6        A7        A8        D1        D2
           A6           0.16516
           A7           0.00006   0.03122
           A8          -0.00430   0.00114   0.01279
           D1          -0.02296   0.00100   0.00012   0.02825
           D2           0.01601   0.00123  -0.00003   0.00384   0.01777
           D3           0.01570   0.00189   0.00042   0.00073   0.00837
           D4          -0.00031   0.00065   0.00046  -0.00311  -0.00940
                          D3        D4
           D3           0.02204
           D4           0.01367   0.02307
 ITU=  0  0  0  0
     Eigenvalues ---   -0.02461   0.01226   0.02621   0.03054   0.05042
     Eigenvalues ---    0.05596   0.11838   0.15385   0.19598   0.20455
     Eigenvalues ---    0.29035   0.39833
 Eigenvectors required to have negative eigenvalues:
                          R1        R5        D4        D1        D2
   1                   -0.82048   0.51912   0.13033   0.10535  -0.10222
                          A1        R4        A5        R3        A4
   1                    0.09342   0.04523  -0.04417   0.04290  -0.03509
 RFO step:  Lambda0=3.849822783D-07 Lambda=-1.96593720D-06.
 Linear search not attempted -- option 19 set.
 Iteration  1 RMS(Cart)=  0.00118906 RMS(Int)=  0.00000071
 Iteration  2 RMS(Cart)=  0.00000066 RMS(Int)=  0.00000048
 Variable       Old X    -DE/DX   Delta X   Delta X   Delta X     New X
                                 (Linear)    (Quad)   (Total)
    R1        2.69872  -0.00034   0.00000   0.00114   0.00114   2.69986
    R2        2.05759   0.00005   0.00000   0.00014   0.00014   2.05773
    R3        3.28000   0.00006   0.00000  -0.00021  -0.00021   3.27980
    R4        3.27999   0.00006   0.00000  -0.00014  -0.00014   3.27985
    R5        2.77788  -0.00033   0.00000  -0.00428  -0.00428   2.77360
    A1        1.74298   0.00003   0.00000  -0.00115  -0.00115   1.74184
    A2        1.85188  -0.00007   0.00000  -0.00042  -0.00042   1.85146
    A3        1.85218  -0.00011   0.00000  -0.00079  -0.00079   1.85138
    A4        1.96983  -0.00009   0.00000   0.00022   0.00022   1.97006
    A5        1.96960  -0.00003   0.00000   0.00033   0.00033   1.96993
    A6        2.04237   0.00022   0.00000   0.00122   0.00122   2.04360
    A7        3.17583  -0.00002   0.00000  -0.00060  -0.00060   3.17524
    A8        3.25459  -0.00002   0.00000   0.00020   0.00020   3.25479
    D1        1.89155  -0.00004   0.00000  -0.00147  -0.00147   1.89008
    D2       -1.89161   0.00004   0.00000   0.00163   0.00163  -1.88999
    D3        2.06182  -0.00003   0.00000  -0.00038  -0.00038   2.06144
    D4       -2.32975  -0.00006   0.00000  -0.00201  -0.00201  -2.33176
         Item               Value     Threshold  Converged?
 Maximum Force            0.000342     0.000450     YES
 RMS     Force            0.000137     0.000300     YES
 Maximum Displacement     0.003797     0.001800     NO 
 RMS     Displacement     0.001189     0.001200     YES
 Predicted change in Energy=-7.905526D-07
 GradGradGradGradGradGradGradGradGradGradGradGradGradGradGradGradGradGrad

                          Input orientation:                          
 ---------------------------------------------------------------------
 Center     Atomic      Atomic             Coordinates (Angstroms)
 Number     Number       Type             X           Y           Z
 ---------------------------------------------------------------------
      1          6           0        0.218005    2.084970   -0.162544
      2          1           0        0.504039    0.732014    0.196464
      3          1           0        0.768822    2.148457   -1.099712
      4         17           0        0.903583    3.070220    1.091070
      5         17           0       -1.501362    2.170350   -0.383598
      6         17           0        0.861851   -0.665577    0.466525
 ---------------------------------------------------------------------
                    Distance matrix (angstroms):
                    1          2          3          4          5
     1  C    0.000000
     2  H    1.428703   0.000000
     3  H    1.088904   1.938167   0.000000
     4  Cl   1.735593   2.535185   2.380616   0.000000
     5  Cl   1.735621   2.535137   2.380553   2.961110   0.000000
     6  Cl   2.894092   1.467726   3.221884   3.787872   3.788135
                    6
     6  Cl   0.000000
 Stoichiometry    CH2Cl3(2)
 Framework group  C1[X(CH2Cl3)]
 Deg. of freedom    12
 Full point group                 C1      NOp   1
 Largest Abelian subgroup         C1      NOp   1
 Largest concise Abelian subgroup C1      NOp   1
                         Standard orientation:                         
 ---------------------------------------------------------------------
 Center     Atomic      Atomic             Coordinates (Angstroms)
 Number     Number       Type             X           Y           Z
 ---------------------------------------------------------------------
      1          6           0        0.467304    0.000012    0.516852
      2          1           0       -0.920013   -0.000328    0.175468
      3          1           0        0.390881   -0.000076    1.603071
      4         17           0        1.117181    1.480688   -0.113658
      5         17           0        1.117789   -1.480422   -0.113674
      6         17           0       -2.368776   -0.000247   -0.059707
 ---------------------------------------------------------------------
 Rotational constants (GHZ):      3.1554373      1.7138249      1.1451134
 Standard basis: 6-31G(d) (6D, 7F)
 There are    76 symmetry adapted basis functions of A   symmetry.
 Integral buffers will be    131072 words long.
 Raffenetti 2 integral format.
 Two-electron integral symmetry is turned on.
    76 basis functions,   192 primitive gaussians,    76 cartesian basis functions
    30 alpha electrons       29 beta electrons
       nuclear repulsion energy       242.2288057476 Hartrees.
 NAtoms=    6 NActive=    6 NUniq=    6 SFac= 1.00D+00 NAtFMM=   60 NAOKFM=F Big=F
 One-electron integrals computed using PRISM.
 NBasis=    76 RedAO= T  NBF=    76
 NBsUse=    76 1.00D-06 NBFU=    76
 Initial guess read from the read-write file.
 B after Tr=     0.000000    0.000000    0.000000
         Rot=    1.000000    0.000000    0.000000    0.000000 Ang=   0.00 deg.
 Initial guess orbital symmetries:
 Alpha Orbitals:
       Occupied  (A) (A) (A) (A) (A) (A) (A) (A) (A) (A) (A) (A)
                 (A) (A) (A) (A) (A) (A) (A) (A) (A) (A) (A) (A)
                 (A) (A) (A) (A) (A) (A)
       Virtual   (A) (A) (A) (A) (A) (A) (A) (A) (A) (A) (A) (A)
                 (A) (A) (A) (A) (A) (A) (A) (A) (A) (A) (A) (A)
                 (A) (A) (A) (A) (A) (A) (A) (A) (A) (A) (A) (A)
                 (A) (A) (A) (A) (A) (A) (A) (A) (A) (A)
 Beta  Orbitals:
       Occupied  (A) (A) (A) (A) (A) (A) (A) (A) (A) (A) (A) (A)
                 (A) (A) (A) (A) (A) (A) (A) (A) (A) (A) (A) (A)
                 (A) (A) (A) (A) (A)
       Virtual   (A) (A) (A) (A) (A) (A) (A) (A) (A) (A) (A) (A)
                 (A) (A) (A) (A) (A) (A) (A) (A) (A) (A) (A) (A)
                 (A) (A) (A) (A) (A) (A) (A) (A) (A) (A) (A) (A)
                 (A) (A) (A) (A) (A) (A) (A) (A) (A) (A) (A)
 Initial guess <Sx>= 0.0000 <Sy>= 0.0000 <Sz>= 0.5000 <S**2>= 0.7550 S= 0.5025
 Requested convergence on RMS density matrix=1.00D-08 within 128 cycles.
 Requested convergence on MAX density matrix=1.00D-06.
 Requested convergence on             energy=1.00D-06.
 No special actions if energy rises.
 Keep R1 and R2 ints in memory in canonical form, NReq=9546585.
 SCF Done:  E(UB3LYP) =  -1419.82722954     A.U. after    9 cycles
             Convg  =    0.6838D-08             -V/T =  2.0032
 <Sx>= 0.0000 <Sy>= 0.0000 <Sz>= 0.5000 <S**2>= 0.7550 S= 0.5025
 <L.S>= 0.000000000000E+00
 Annihilation of the first spin contaminant:
 S**2 before annihilation     0.7550,   after     0.7500
 Calling FoFJK, ICntrl=      2127 FMM=F ISym2X=0 I1Cent= 0 IOpClX= 1 NMat=1 NMatS=1 NMatT=0.
 ***** Axes restored to original set *****
 -------------------------------------------------------------------
 Center     Atomic                   Forces (Hartrees/Bohr)
 Number     Number              X              Y              Z
 -------------------------------------------------------------------
      1        6          -0.000002525   -0.000006608   -0.000021613
      2        1           0.000007802    0.000017990   -0.000007273
      3        1          -0.000004068    0.000025194    0.000004979
      4       17           0.000021097    0.000005223    0.000012166
      5       17          -0.000018129   -0.000009142   -0.000008159
      6       17          -0.000004178   -0.000032656    0.000019899
 -------------------------------------------------------------------
 Cartesian Forces:  Max     0.000032656 RMS     0.000015293

 GradGradGradGradGradGradGradGradGradGradGradGradGradGradGradGradGradGrad
 Berny optimization.
 Internal  Forces:  Max     0.000033745 RMS     0.000018557
 Search for a saddle point.
 Step number   5 out of a maximum of   27
 All quantities printed in internal units (Hartrees-Bohrs-Radians)
 Swaping is turned off.
 Update second derivatives using D2CorX and points    1    2    3    4    5
 The second derivative matrix:
                          R1        R2        R3        R4        R5
           R1           0.02776
           R2           0.00165   0.39810
           R3           0.00924   0.00223   0.21712
           R4           0.00950   0.00227   0.03765   0.21707
           R5           0.07965   0.00023   0.00079   0.00062   0.10883
           A1           0.00382   0.00113   0.00191  -0.00139   0.00002
           A2           0.00217  -0.00092  -0.00284  -0.01368  -0.00162
           A3           0.00445  -0.00180  -0.01293  -0.00580  -0.00186
           A4          -0.00044   0.00012   0.00721  -0.02010   0.00045
           A5          -0.00490   0.00058  -0.01779   0.01474   0.00151
           A6          -0.00228   0.00095   0.02558   0.02723   0.00367
           A7           0.00109   0.00080  -0.00288   0.00086   0.00048
           A8           0.00158   0.00134  -0.00261  -0.00366   0.00034
           D1           0.00449   0.00091   0.00491  -0.02247  -0.00199
           D2          -0.00432  -0.00062   0.01660  -0.00367   0.00114
           D3           0.00488  -0.00160   0.00449  -0.00345   0.00020
           D4           0.00919  -0.00098  -0.01211   0.00022  -0.00094
                          A1        A2        A3        A4        A5
           A1           0.01626
           A2          -0.01119   0.03512
           A3          -0.01252  -0.00968   0.06446
           A4          -0.00904   0.00730   0.02713   0.04890
           A5          -0.01346   0.02486  -0.02891  -0.01810   0.08645
           A6           0.03466  -0.04698  -0.04072  -0.05694  -0.05120
           A7           0.00009   0.00205  -0.00295  -0.00079   0.00063
           A8          -0.00211   0.00113   0.00292   0.00001  -0.00173
           D1           0.00623   0.01213  -0.00498   0.02358  -0.01209
           D2          -0.00321   0.00446  -0.00628   0.00538  -0.01890
           D3           0.00143   0.00834   0.00285  -0.00965  -0.01890
           D4           0.00464   0.00388   0.00913  -0.01502   0.00000
                          A6        A7        A8        D1        D2
           A6           0.16181
           A7           0.00149   0.03085
           A8          -0.00341   0.00064   0.01317
           D1          -0.02059   0.00065  -0.00115   0.02806
           D2           0.01361   0.00147   0.00142   0.00364   0.01844
           D3           0.01632   0.00182   0.00008   0.00081   0.00818
           D4           0.00271   0.00036  -0.00134  -0.00283  -0.01026
                          D3        D4
           D3           0.02206
           D4           0.01388   0.02414
 ITU=  0  0  0  0  0
     Eigenvalues ---   -0.02485   0.01255   0.02817   0.03082   0.04919
     Eigenvalues ---    0.05551   0.11792   0.15750   0.19594   0.20363
     Eigenvalues ---    0.28813   0.39824
 Eigenvectors required to have negative eigenvalues:
                          R1        R5        D4        D1        D2
   1                   -0.83349   0.50152   0.13317   0.09428  -0.08795
                          A1        D3        A5        A8        R4
   1                    0.07597   0.04522  -0.04466   0.04247   0.04182
 RFO step:  Lambda0=5.196863096D-10 Lambda=-1.01787904D-07.
 Linear search not attempted -- option 19 set.
 Iteration  1 RMS(Cart)=  0.00068259 RMS(Int)=  0.00000052
 Iteration  2 RMS(Cart)=  0.00000067 RMS(Int)=  0.00000000
 Variable       Old X    -DE/DX   Delta X   Delta X   Delta X     New X
                                 (Linear)    (Quad)   (Total)
    R1        2.69986   0.00002   0.00000   0.00025   0.00025   2.70011
    R2        2.05773  -0.00001   0.00000  -0.00001  -0.00001   2.05772
    R3        3.27980   0.00002   0.00000   0.00006   0.00006   3.27985
    R4        3.27985   0.00002   0.00000   0.00002   0.00002   3.27987
    R5        2.77360   0.00003   0.00000   0.00014   0.00014   2.77374
    A1        1.74184   0.00002   0.00000   0.00037   0.00037   1.74221
    A2        1.85146  -0.00001   0.00000  -0.00017  -0.00017   1.85129
    A3        1.85138  -0.00002   0.00000  -0.00012  -0.00012   1.85126
    A4        1.97006  -0.00002   0.00000  -0.00009  -0.00009   1.96996
    A5        1.96993  -0.00001   0.00000  -0.00002  -0.00002   1.96991
    A6        2.04360   0.00003   0.00000   0.00007   0.00007   2.04366
    A7        3.17524  -0.00001   0.00000  -0.00025  -0.00025   3.17499
    A8        3.25479  -0.00003   0.00000  -0.00209  -0.00209   3.25270
    D1        1.89008   0.00001   0.00000   0.00031   0.00031   1.89039
    D2       -1.88999  -0.00001   0.00000  -0.00036  -0.00036  -1.89035
    D3        2.06144  -0.00001   0.00000  -0.00027  -0.00027   2.06117
    D4       -2.33176   0.00000   0.00000   0.00010   0.00010  -2.33167
         Item               Value     Threshold  Converged?
 Maximum Force            0.000034     0.000450     YES
 RMS     Force            0.000019     0.000300     YES
 Maximum Displacement     0.001505     0.001800     YES
 RMS     Displacement     0.000683     0.001200     YES
 Predicted change in Energy=-5.063407D-08
 Optimization completed.
    -- Stationary point found.
[...]
 
              Baa    -0.0747    -6.118    -2.183    -2.041 -0.1829 -0.0013  0.9831
     2 H(2)   Bbb    -0.0743    -6.087    -2.172    -2.030 -0.0004  1.0000  0.0012
              Bcc     0.1490    12.205     4.355     4.071  0.9831  0.0002  0.1829
 
              Baa    -0.0369   -19.664    -7.017    -6.559 -0.0002  1.0000  0.0001
     3 H(1)   Bbb    -0.0102    -5.445    -1.943    -1.816  0.9967  0.0002  0.0811
              Bcc     0.0471    25.109     8.960     8.375 -0.0811 -0.0001  0.9967
 
              Baa    -0.4924   -25.771    -9.196    -8.596  0.0298  0.8536 -0.5200
     4 Cl(35) Bbb    -0.3617   -18.932    -6.755    -6.315 -0.3944  0.4881  0.7786
              Bcc     0.8541    44.703    15.951    14.911  0.9184  0.1819  0.3512
 
              Baa    -0.4925   -25.774    -9.197    -8.597 -0.0301  0.8536  0.5200
     5 Cl(35) Bbb    -0.3618   -18.934    -6.756    -6.316 -0.3942 -0.4882  0.7786
              Bcc     0.8542    44.708    15.953    14.913  0.9185 -0.1815  0.3512
 
              Baa    -1.1211   -58.675   -20.937   -19.572 -0.2017  0.0041  0.9794
     6 Cl(35) Bbb    -1.1209   -58.663   -20.932   -19.568  0.0008  1.0000 -0.0040
              Bcc     2.2419   117.338    41.869    39.140  0.9795  0.0000  0.2017
 

 ---------------------------------------------------------------------------------

 Calling FoFJK, ICntrl=    100127 FMM=F ISym2X=0 I1Cent= 0 IOpClX= 1 NMat=1 NMatS=1 NMatT=0.
 Full mass-weighted force constant matrix:
 Low frequencies --- -748.8974   -7.3405   -0.0067   -0.0033    0.0012    4.0394
 Low frequencies ---    4.6489   86.5160  150.7393
 ******    1 imaginary frequencies (negative Signs) ****** 
 Harmonic frequencies (cm**-1), IR intensities (KM/Mole), Raman scattering
 activities (A**4/AMU), depolarization ratios for plane and unpolarized
 incident light, reduced masses (AMU), force constants (mDyne/A),
 and normal coordinates:
                     1                      2                      3
                     A                      A                      A
 Frequencies --  -748.8974                86.5126               150.7391
 Red. masses --     2.4586                23.5782                 8.9175
 Frc consts  --     0.8124                 0.1040                 0.1194
 IR Inten    --     4.8296                 1.6752                 1.6235
  Atom  AN      X      Y      Z        X      Y      Z        X      Y      Z
     1   6    -0.21   0.00  -0.04     0.00   0.32   0.00    -0.19   0.00  -0.28
     2   1     0.95   0.00   0.19     0.00   0.39   0.00    -0.13   0.00  -0.51
     3   1     0.15   0.00   0.00     0.00   0.34   0.00    -0.58   0.00  -0.30
     4  17     0.00   0.00   0.00     0.45   0.14   0.02     0.20  -0.03   0.04
     5  17     0.00   0.00   0.00    -0.45   0.14  -0.02     0.20   0.03   0.04
     6  17     0.01   0.00   0.00     0.00  -0.42   0.00    -0.31   0.00   0.06
                     4                      5                      6
                     A                      A                      A
 Frequencies --   294.8729               398.2684               673.8533
 Red. masses --     9.5500                 3.7626                 2.1321
 Frc consts  --     0.4892                 0.3516                 0.5704
 IR Inten    --     2.8385                 6.4170                16.1885
  Atom  AN      X      Y      Z        X      Y      Z        X      Y      Z
     1   6     0.04   0.00  -0.37     0.17   0.00   0.12     0.00   0.04   0.00
     2   1     0.07   0.00  -0.62     0.09   0.00   0.60     0.00   1.00   0.00
     3   1    -0.33   0.00  -0.40     0.71   0.00   0.17     0.00  -0.04   0.00
     4  17    -0.05   0.29   0.06     0.04   0.11  -0.02    -0.03  -0.03   0.01
     5  17    -0.05  -0.29   0.06     0.04  -0.11  -0.02     0.03  -0.03  -0.01
     6  17     0.09   0.00   0.05    -0.16   0.00  -0.05     0.00  -0.01   0.00
                     7                      8                      9
                     A                      A                      A
 Frequencies --   707.2691               767.4297               842.4787
 Red. masses --     2.7478                 5.9172                 7.0355
 Frc consts  --     0.8098                 2.0533                 2.9422
 IR Inten    --     4.9042                63.9569               189.4195
  Atom  AN      X      Y      Z        X      Y      Z        X      Y      Z
     1   6    -0.13   0.00  -0.22     0.41   0.00  -0.36     0.00   0.65   0.00
     2   1    -0.41   0.00   0.85     0.44   0.00   0.01     0.00  -0.29   0.00
     3   1    -0.02   0.00  -0.21     0.58   0.00  -0.36     0.00   0.67   0.00
     4  17     0.01   0.00   0.02    -0.06  -0.10   0.07    -0.05  -0.11   0.06
     5  17     0.01   0.00   0.02    -0.06   0.10   0.07     0.05  -0.11  -0.06
     6  17     0.05   0.00   0.00    -0.06   0.00  -0.01     0.00   0.00   0.00
                    10                     11                     12
                     A                      A                      A
 Frequencies --  1032.0249              1267.5862              3182.8165
 Red. masses --     1.2448                 1.1039                 1.0873
 Frc consts  --     0.7811                 1.0450                 6.4895
 IR Inten    --    14.8775                28.2053                 9.3341
  Atom  AN      X      Y      Z        X      Y      Z        X      Y      Z
     1   6    -0.11   0.00  -0.03     0.00  -0.09   0.00     0.01   0.00  -0.08
     2   1    -0.18   0.00  -0.24     0.00   0.03   0.00     0.00   0.00   0.00
     3   1     0.95   0.00   0.04     0.00   1.00   0.00    -0.07   0.00   0.99
     4  17     0.00   0.00   0.01     0.00   0.00   0.01     0.00   0.00   0.00
     5  17     0.00   0.00   0.01     0.00   0.00  -0.01     0.00   0.00   0.00
     6  17     0.01   0.00   0.00     0.00   0.00   0.00     0.00   0.00   0.00

 -------------------
 - Thermochemistry -
 -------------------
 Temperature   298.150 Kelvin.  Pressure   1.00000 Atm.
 Atom     1 has atomic number  6 and mass  12.00000
 Atom     2 has atomic number  1 and mass   2.01410
 Atom     3 has atomic number  1 and mass   1.00783
 Atom     4 has atomic number 17 and mass  34.96885
 Atom     5 has atomic number 17 and mass  34.96885
 Atom     6 has atomic number 17 and mass  34.96885
 Molecular mass:   119.92849 amu.
 Principal axes and moments of inertia in atomic units:
                           1         2         3
     Eigenvalues --   571.946461053.048781576.03703
           X            1.00000   0.00000   0.00264
           Y            0.00000   1.00000   0.00000
           Z           -0.00264   0.00000   1.00000
 This molecule is an asymmetric top.
 Rotational symmetry number  1.
 Warning -- assumption of classical behavior for rotation
           may cause significant error
 Rotational temperatures (Kelvin)      0.15144     0.08225     0.05496
 Rotational constants (GHZ):           3.15544     1.71382     1.14511
    1 imaginary frequencies ignored.
 Zero-point vibrational energy      56247.5 (Joules/Mol)
                                   13.44348 (Kcal/Mol)
 Warning -- explicit consideration of   4 degrees of freedom as
           vibrations may cause significant error
 Vibrational temperatures:    124.47   216.88   424.26   573.02   969.52
          (Kelvin)           1017.60  1104.16  1212.14  1484.85  1823.77
                             4579.36
 
 Zero-point correction=                           0.021424 (Hartree/Particle)
 Thermal correction to Energy=                    0.026831
 Thermal correction to Enthalpy=                  0.027775
 Thermal correction to Gibbs Free Energy=        -0.010214
 Sum of electronic and zero-point Energies=          -1419.805806
 Sum of electronic and thermal Energies=             -1419.800399
 Sum of electronic and thermal Enthalpies=           -1419.799455
 Sum of electronic and thermal Free Energies=        -1419.837444
 
                     E (Thermal)             CV                S
                      KCal/Mol        Cal/Mol-Kelvin    Cal/Mol-Kelvin
 Total                   16.836             16.472             79.955
 Electronic               0.000              0.000              1.377
 Translational            0.889              2.981             40.260
 Rotational               0.889              2.981             28.342
 Vibrational             15.059             10.510              9.976
 Vibration     1          0.601              1.959              3.737
 Vibration     2          0.618              1.902              2.663
 Vibration     3          0.689              1.683              1.446
 Vibration     4          0.765              1.474              0.969
                       Q            Log10(Q)             Ln(Q)
 Total Bot       0.499160D+05          4.698240         10.818097
 Total V=0       0.356753D+15         14.552368         33.508065
 Vib (Bot)       0.138624D-08         -8.858160        -20.396668
 Vib (Bot)    1  0.237801D+01          0.376213          0.866263
 Vib (Bot)    2  0.134488D+01          0.128683          0.296303
 Vib (Bot)    3  0.646794D+00         -0.189234         -0.435728
 Vib (Bot)    4  0.448095D+00         -0.348630         -0.802750
 Vib (V=0)       0.990758D+01          0.995968          2.293300
 Vib (V=0)    1  0.293000D+01          0.466868          1.075004
 Vib (V=0)    2  0.193482D+01          0.286640          0.660012
 Vib (V=0)    3  0.131752D+01          0.119758          0.275753
 Vib (V=0)    4  0.117141D+01          0.068708          0.158207
 Electronic      0.200000D+01          0.301030          0.693147
 Translational   0.516225D+08          7.712839         17.759467
 Rotational      0.348764D+06          5.542532         12.762151
 ***** Axes restored to original set *****
 -------------------------------------------------------------------
 Center     Atomic                   Forces (Hartrees/Bohr)
 Number     Number              X              Y              Z
 -------------------------------------------------------------------
      1        6          -0.000002511   -0.000006628   -0.000021627
      2        1           0.000007801    0.000017992   -0.000007272
      3        1          -0.000004072    0.000025197    0.000004985
      4       17           0.000021097    0.000005232    0.000012173
      5       17          -0.000018138   -0.000009138   -0.000008158
      6       17          -0.000004177   -0.000032655    0.000019898
 -------------------------------------------------------------------
 Cartesian Forces:  Max     0.000032655 RMS     0.000015296

 GradGradGradGradGradGradGradGradGradGradGradGradGradGradGradGradGradGrad
 Berny optimization.
 Internal  Forces:  Max     0.000033744 RMS     0.000018557
 Search for a saddle point.
 Step number   1 out of a maximum of    2
 All quantities printed in internal units (Hartrees-Bohrs-Radians)
 Swaping is turned off.
 Second derivative matrix not updated -- analytic derivatives used.
 The second derivative matrix:
                          R1        R2        R3        R4        R5
           R1           0.02972
           R2           0.00210   0.35657
           R3           0.00983   0.00280   0.23573
           R4           0.00987   0.00279   0.03257   0.23572
           R5           0.08016  -0.00025  -0.00131  -0.00130   0.10922
           A1           0.00319   0.00118  -0.00236  -0.00500  -0.00132
           A2           0.00229  -0.00115   0.00200  -0.01080  -0.00016
           A3           0.00462  -0.00230  -0.01047   0.00004  -0.00045
           A4          -0.00021  -0.00011   0.01149  -0.02016   0.00020
           A5          -0.00385   0.00086  -0.01829   0.01590   0.00089
           A6          -0.00374   0.00111   0.01443   0.01568   0.00040
           A7           0.00018   0.00075  -0.00357   0.00166  -0.00033
           A8          -0.00003   0.00115  -0.00057  -0.00212  -0.00051
           D1           0.00489   0.00071   0.00340  -0.02062  -0.00155
           D2          -0.00453  -0.00052   0.01651  -0.00121   0.00140
           D3           0.00406  -0.00249   0.00352  -0.00432  -0.00030
           D4           0.00859  -0.00198  -0.01299  -0.00311  -0.00171
                          A1        A2        A3        A4        A5
           A1           0.01120
           A2          -0.00581   0.03286
           A3          -0.00936  -0.01494   0.05532
           A4          -0.00782   0.00671   0.02603   0.06321
           A5          -0.01163   0.02242  -0.01791  -0.02698   0.08658
           A6           0.02178  -0.03666  -0.03177  -0.05315  -0.05065
           A7           0.00007   0.00242  -0.00293  -0.00087   0.00029
           A8          -0.00009  -0.00101   0.00129   0.00000  -0.00057
           D1           0.00653   0.01390  -0.00751   0.02247  -0.01349
           D2          -0.00292   0.00494  -0.01094   0.00707  -0.01505
           D3          -0.00121   0.00889   0.00251  -0.00423  -0.01497
           D4           0.00172   0.00394   0.01344  -0.01130   0.00008
                          A6        A7        A8        D1        D2
           A6           0.13331
           A7           0.00087   0.03274
           A8           0.00038  -0.00069   0.01226
           D1          -0.01780   0.00100  -0.00065   0.02511
           D2           0.01404   0.00137  -0.00033   0.00237   0.01599
           D3           0.01000   0.00146  -0.00011   0.00151   0.00669
           D4          -0.00404   0.00009   0.00022  -0.00086  -0.00930
                          D3        D4
           D3           0.01916
           D4           0.01246   0.02176
 ITU=  0
     Eigenvalues ---   -0.02384   0.01215   0.02520   0.03190   0.04501
     Eigenvalues ---    0.06307   0.11782   0.15879   0.19296   0.21856
     Eigenvalues ---    0.27796   0.35688
 Eigenvectors required to have negative eigenvalues:
                          R1        R5        D4        D1        D2
   1                   -0.82972   0.50617   0.13548   0.09776  -0.09630
                          A1        R4        A5        R3        D3
   1                    0.08358   0.04310  -0.04310   0.04186   0.03918
 Angle between quadratic step and forces=  52.72 degrees.
 Linear search not attempted -- option 19 set.
 Iteration  1 RMS(Cart)=  0.00086498 RMS(Int)=  0.00000075
 Iteration  2 RMS(Cart)=  0.00000096 RMS(Int)=  0.00000000
 Variable       Old X    -DE/DX   Delta X   Delta X   Delta X     New X
                                 (Linear)    (Quad)   (Total)
    R1        2.69986   0.00002   0.00000   0.00042   0.00042   2.70028
    R2        2.05773  -0.00001   0.00000  -0.00002  -0.00002   2.05771
    R3        3.27980   0.00002   0.00000   0.00009   0.00009   3.27989
    R4        3.27985   0.00002   0.00000   0.00004   0.00004   3.27989
    R5        2.77360   0.00003   0.00000   0.00001   0.00001   2.77361
    A1        1.74184   0.00002   0.00000   0.00057   0.00057   1.74240
    A2        1.85146  -0.00001   0.00000  -0.00028  -0.00028   1.85118
    A3        1.85138  -0.00002   0.00000  -0.00020  -0.00020   1.85118
    A4        1.97006  -0.00002   0.00000  -0.00014  -0.00014   1.96991
    A5        1.96993  -0.00001   0.00000  -0.00002  -0.00002   1.96991
    A6        2.04360   0.00003   0.00000   0.00012   0.00012   2.04372
    A7        3.17524  -0.00001   0.00000  -0.00031  -0.00031   3.17493
    A8        3.25479  -0.00003   0.00000  -0.00245  -0.00245   3.25234
    D1        1.89008   0.00001   0.00000   0.00045   0.00045   1.89053
    D2       -1.88999  -0.00001   0.00000  -0.00054  -0.00054  -1.89053
    D3        2.06144  -0.00001   0.00000  -0.00043  -0.00043   2.06101
    D4       -2.33176   0.00000   0.00000   0.00012   0.00012  -2.33164
         Item               Value     Threshold  Converged?
 Maximum Force            0.000034     0.000450     YES
 RMS     Force            0.000019     0.000300     YES
 Maximum Displacement     0.001988     0.001800     NO 
 RMS     Displacement     0.000865     0.001200     YES
 Predicted change in Energy=-6.326927D-08
 GradGradGradGradGradGradGradGradGradGradGradGradGradGradGradGradGradGrad

 1\1\GINC-STUDENT-THINKCENTRE-M93P\Freq\UB3LYP\6-31G(d)\C1H2Cl3(2)\STUD
 ENT\22-Feb-2021\0\\#N Geom=AllCheck Guess=TCheck SCRF=Check GenChk UB3
 LYP/6-31G(d) Freq\\Title Card Required\\0,2\C,0.2180054864,2.084969913
 8,-0.1625440766\H,0.5040394932,0.7320136286,0.1964643882\H,0.768821859
 9,2.1484565908,-1.099711761\Cl,0.9035833737,3.0702197534,1.0910702256\
 Cl,-1.5013618044,2.170350422,-0.3835981987\Cl,0.8618506112,-0.66557667
 86,0.4665245323\\Version=EM64L-G09RevC.01\State=2-A\HF=-1419.8272295\S
 2=0.755023\S2-1=0.\S2A=0.750015\RMSD=1.998e-09\RMSF=1.530e-05\ZeroPoin
 t=0.0214236\Thermal=0.0268306\Dipole=-0.0963576,1.0694734,-0.4957004\D
 ipoleDeriv=1.2364329,-0.0077953,0.538014,0.0967849,0.886928,0.2548175,
 0.4741432,0.4254953,0.5304611,0.0842274,0.0117117,-0.0254342,-0.004026
 6,0.0815126,0.0014296,-0.0158411,-0.0242391,0.1136206,-0.0325329,0.030
 2019,-0.0420989,-0.00678,-0.0234223,-0.003326,-0.0195044,-0.0636697,0.
 0236494,-0.2454715,-0.1974164,-0.17985,-0.219379,-0.4109959,-0.2603174
 ,-0.290642,-0.3750515,-0.3147632,-0.7721326,0.122547,-0.2915185,0.0743
 993,-0.1076135,-0.0011276,-0.1378982,-0.0008525,-0.0915895,-0.2705232,
 0.0407511,0.0008876,0.0590014,-0.426409,0.0085239,-0.0102575,0.0383176
 ,-0.2613783\Polar=49.4038635,-7.0612874,68.8767364,10.7992762,2.050216
 7,34.5201261\PG=C01 [X(C1H2Cl3)]\NImag=1\\0.34862653,0.03764994,0.1217
 9900,-0.10412664,0.04667234,0.44027015,-0.00933966,-0.02456656,0.00616
 811,0.03042572,-0.02435538,0.07542745,-0.01529972,0.01196386,-0.016216
 27,0.00604876,-0.01499430,-0.01546848,-0.00130539,0.01117295,0.0294127
 7,-0.11533681,-0.01158834,0.13149141,0.00119322,0.00300935,-0.00113118
 ,0.13160107,-0.02055835,-0.02783801,0.02668170,-0.00262870,-0.01167200
 ,0.01240417,0.01596718,0.03499821,0.13696637,0.01205337,-0.26980925,0.
 00231035,0.00320668,-0.00409831,-0.13110990,-0.01250053,0.27866281,-0.
 04711414,-0.02728030,-0.03802865,0.00069944,-0.00313196,-0.00154492,0.
 00580421,0.00156189,0.00207523,0.06382855,-0.02464993,-0.06815956,-0.0
 7359940,-0.00338070,-0.01585903,-0.01039409,-0.00463068,-0.00261722,-0
 .00304470,0.04486176,0.08312058,-0.02207209,-0.05573143,-0.11774951,-0
 .00091497,-0.00565948,-0.00234228,-0.01494999,-0.02360762,-0.01396215,
 0.05944677,0.08960248,0.13702649,-0.17378514,0.00553714,0.00951680,-0.
 01340171,0.00757572,-0.00203776,-0.02364011,0.00636012,-0.01003756,-0.
 02357130,-0.01179199,-0.02166999,0.23281288,0.01383742,-0.02373867,-0.
 00314189,0.01134163,-0.00437216,0.00168394,-0.00199981,0.00428559,0.00
 079036,-0.01648089,0.00200571,-0.00532715,-0.00680948,0.02078816,-0.01
 311072,-0.00318609,-0.03546608,-0.00481298,0.00268278,0.00026661,0.015
 86948,-0.00237995,0.00857466,-0.02241987,-0.00273285,-0.00396781,0.024
 27050,0.00598191,0.03034887,-0.00305078,0.02024812,-0.00502102,-0.0095
 7701,0.00493841,-0.00002952,0.00037842,-0.00070214,-0.00020450,0.00035
 323,-0.00040846,0.00016026,0.00158538,0.00011112,0.00020358,0.01031077
 ,0.01807630,-0.07749021,0.01868697,0.00727047,-0.02730799,0.00012733,-
 0.00075771,0.00284343,-0.00050518,0.00046950,0.00150952,0.00072321,-0.
 00087151,0.00103137,-0.00036580,-0.02418706,0.09941388,-0.00370569,0.0
 1518612,-0.00177683,-0.00144513,0.00389678,-0.00777032,-0.00016982,-0.
 00059777,0.00063224,0.00047143,0.00016856,0.00099526,-0.00004199,0.000
 01283,0.00024376,0.00489119,-0.01866652,0.00767589\\0.00000251,0.00000
 663,0.00002163,-0.00000780,-0.00001799,0.00000727,0.00000407,-0.000025
 20,-0.00000499,-0.00002110,-0.00000523,-0.00001217,0.00001814,0.000009
 14,0.00000816,0.00000418,0.00003265,-0.00001990\\\@


 ALL THINGS ARE POSSIBLE EXCEPT SKIING THROUGH A REVOLVING DOOR.
 Job cpu time:  0 days  0 hours  0 minutes 24.6 seconds.
 File lengths (MBytes):  RWF=     16 Int=      0 D2E=      0 Chk=      2 Scr=      1
 Normal termination of Gaussian 09 at Mon Feb 22 16:29:05 2021.
